-1.673480647690000069e+03
-1.661774996879999890e+03
-1.658509847940000100e+03
-1.656599859070000093e+03
-1.655722549869999966e+03
-1.664597557360000110e+03
-1.661513449979999905e+03
-1.658851306499999964e+03
-1.659458414709999943e+03
-1.661459111390000089e+03
-1.660831600250000065e+03
-1.665335460799999964e+03
-1.665923571139999922e+03
-1.682535073340000054e+03
-1.662226281779999908e+03
-1.668087477889999946e+03
-1.664552665310000066e+03
-1.661770155619999969e+03
-1.666270284660000016e+03
-1.663763715600000069e+03
-1.665791166510000039e+03
-1.677520418509999899e+03
-1.662306169480000108e+03
-1.659125536360000069e+03
-1.660210189520000085e+03
-1.660952272340000036e+03
-1.662398308289999932e+03
-1.661272312159999956e+03
-1.661621990820000065e+03
-1.657395719769999914e+03
-1.660765772019999986e+03
-1.672415814010000076e+03
-1.658348837539999977e+03
-1.660230704659999901e+03
-1.658059186180000097e+03
-1.659136435639999945e+03
-1.660374339640000017e+03
-1.660265518359999987e+03
-1.662067400690000113e+03
-1.663606912369999918e+03
-1.664571538079999982e+03
-1.660640747919999967e+03
-1.661081423180000002e+03
-1.663974066120000089e+03
-1.662527229560000023e+03
-1.664242695440000034e+03
-1.663561469550000083e+03
-1.665969887620000009e+03
-1.659782601200000045e+03
-1.656906853380000030e+03
-1.650951685830000088e+03
-1.655945653360000051e+03
-1.665399737019999975e+03
-1.666616222789999938e+03
-1.666071486770000092e+03
-1.654616551379999919e+03
-1.660409429090000003e+03
-1.660172871360000045e+03
-1.678288513310000098e+03
-1.681522763740000073e+03
-1.661903216949999887e+03
-1.661687855169999921e+03
-1.663337969930000099e+03
-1.658689082789999929e+03
-1.659175586620000104e+03
-1.661271107649999976e+03
-1.661873774939999976e+03
-1.656343473659999972e+03
-1.662988449050000099e+03
-1.663105273919999945e+03
-1.655616726190000009e+03
-1.657357248340000069e+03
-1.663889485919999970e+03
-1.662274743310000076e+03
-1.665029386310000064e+03
-1.661334590969999908e+03
-1.657517128129999946e+03
-1.660385245330000089e+03
-1.664207030490000079e+03
-1.664545867739999949e+03
-1.664885678139999982e+03
-1.662013433560000067e+03
-1.660318076049999945e+03
-1.678411457709999922e+03
-1.664743963110000095e+03
-1.661409820130000071e+03
-1.662979601459999913e+03
-1.661455121610000106e+03
-1.665450248879999890e+03
-1.662941257039999982e+03
-1.660298522600000069e+03
-1.659754932650000001e+03
-1.662994232539999985e+03
-1.680870069410000042e+03
-1.677535913910000090e+03
-1.660450965320000023e+03
-1.662275704670000096e+03
-1.660861595339999894e+03
-1.682127428830000099e+03
-1.658490074159999949e+03
-1.663553930670000000e+03
-1.659730656360000012e+03
-1.660603603730000032e+03
-1.661799844979999989e+03
-1.664226346109999895e+03
-1.657562372800000048e+03
-1.659051831060000040e+03
-1.678650139320000108e+03
-1.663027774480000062e+03
-1.659186477920000016e+03
-1.662110237339999912e+03
-1.665138765359999979e+03
-1.661015270990000090e+03
-1.663672124059999987e+03
-1.665263126249999914e+03
-1.660311187969999992e+03
-1.660136012839999921e+03
-1.664151408870000068e+03
-1.659226729629999909e+03
-1.677524337869999954e+03
-1.664637260030000107e+03
-1.662267438719999973e+03
-1.659104622370000016e+03
-1.660107884660000082e+03
-1.660481777160000092e+03
-1.659796389860000090e+03
-1.661803459680000060e+03
-1.660313983759999928e+03
-1.663438067880000062e+03
-1.654331890850000036e+03
-1.664429609170000049e+03
-1.678975661380000020e+03
-1.657516201090000095e+03
