1.946420000000000039e+00 6.394569999999999865e+00 1.547109999999999985e+01 6.771300000000000097e-01 8.376989999999999270e+00 2.218730000000000047e+01 1.541980000000000040e+01 1.482869999999999955e+01 1.814689999999999870e+01 3.232569999999999943e+00 3.788040000000000074e+00 1.539680000000000071e+01 1.121289999999999942e+01 1.070279999999999987e+01 8.524190000000000822e+00 1.051370000000000005e+01 6.536190000000000389e+00 1.929789999999999850e+01 8.716060000000000585e+00 1.291380000000000017e+01 1.189830000000000076e+01 6.257959999999999745e+00 1.449569999999999936e+01 2.206700000000000017e+01 6.113550000000000040e+00 5.890270000000000117e+00 1.532600000000000051e+01 5.596420000000000172e+00 6.222979999999999734e+00 2.838639999999999830e+00 1.295940000000000092e+00 1.777530000000000054e+00 1.600390000000000157e+01 1.567750000000000021e+01 7.273340000000000138e+00 1.294599999999999973e+00 8.697919999999999874e+00 4.116369999999999862e+00 1.204390000000000072e+01 1.109549999999999947e+01 6.217380000000000351e+00 2.082219999999999960e+00 1.077989999999999959e+01 1.131499999999999950e+01 1.441480000000000095e+00 8.992620000000000502e+00 1.325169999999999959e+01 1.829090000000000060e+01 1.062299999999999933e+01 1.530790000000000006e+01 1.832659999999999911e+01 2.817050000000000054e+00 2.502190000000000136e+00 2.399230000000000018e+01 2.533959999999999990e+00 1.056920000000000037e+01 2.279570000000000007e+01 1.528170000000000073e+01 3.013619999999999965e+00 2.196069999999999922e+01 1.266399999999999970e+01 9.317769999999999442e+00 2.972799999999999887e-01 3.762420000000000098e+00 9.361860000000000070e+00 1.302030000000000065e+01 8.953070000000000306e+00 4.449659999999999727e+00 5.864060000000000272e+00 2.774970000000000159e+00 1.132859999999999978e+01 1.583469999999999978e+01 3.895709999999999784e+00 1.674790000000000134e+01 1.255719999999999992e+01 6.656719999999999970e+00 2.358400000000000052e+00 1.842700000000000005e+00 1.415589999999999904e+00 1.510019999999999918e+01 1.486769999999999925e+01 2.361450000000000049e+00 1.511040000000000028e+01 1.772220000000000084e+01 1.099160000000000004e+01 2.088130000000000042e+00 6.335779999999999745e+00 1.045209999999999972e+01 1.497770000000000046e+01 1.223809999999999931e+01 1.842340000000000089e+00 1.960059999999999913e+00 2.143499999999999872e+01 1.520410000000000039e+01 1.074670000000000059e+01 1.576159999999999961e+01 1.801409999999999956e+00 1.945249999999999924e+00 1.235060000000000002e+01 3.294150000000000134e+00 4.043160000000000309e+00 2.640010000000000190e+00 7.171890000000000320e+00 1.088030000000000008e+01 1.883370000000000033e+01 4.745709999999999873e+00 8.317320000000000491e+00 1.939079999999999870e+01 8.302239999999999398e+00 4.767600000000000171e-01 9.042059999999999320e+00 4.896630000000000038e+00 4.507599999999999940e-01 6.413470000000000226e+00 1.068999999999999950e+01 1.092399999999999949e+01 4.541050000000000253e+00 6.362790000000000390e+00 2.585409999999999986e+00 2.238210000000000122e+01 2.721579999999999888e+00 2.394540000000000113e+00 9.904260000000000730e+00 2.693519999999999914e+00 6.540890000000000093e+00 2.198959999999999937e+01 5.418800000000000283e-01 1.303749999999999964e+01 2.454070000000000107e+01 1.299639999999999951e+01 9.016790000000000305e+00 1.988619999999999877e+01 2.358870000000000022e+00 2.489230000000000054e+00 6.274099999999999788e+00 1.149699999999999989e+01 5.855400000000000382e+00 9.647199999999999775e+00 1.100079999999999991e+01 1.467140000000000022e+01 9.565609999999999502e+00 1.279410000000000025e+01 1.684629999999999939e+01 1.950270000000000081e+01 2.434099999999999930e+00 6.658000000000000362e+00 1.858279999999999887e+01 6.005349999999999966e+00 5.913129999999999775e+00 5.582510000000000083e+00 2.161830000000000140e+00 1.509779999999999944e+01 2.098789999999999978e+01 1.698620000000000019e+00 1.590799999999999947e+01 3.005869999999999820e+00 1.278749999999999964e+01 4.881520000000000081e+00 3.840710000000000068e+00 6.610820000000000363e+00 1.764520000000000088e+00 1.832770000000000010e+01 1.099140000000000050e+01 1.524119999999999919e+01 2.389880000000000138e+01 6.869139999999999802e+00 1.112270000000000003e+01 1.190700000000000003e+01 4.174300000000000233e-01 4.028529999999999944e+00 2.467709999999999937e+01 8.607039999999999580e+00 1.716049999999999898e+01 1.493759999999999977e+01 2.721509999999999874e+00 1.189990000000000059e+01 4.970200000000000173e+00 4.282699999999999840e-01 3.242300000000000182e-01 9.149660000000000792e+00 1.537739999999999974e+01 1.598359999999999914e+01 7.971820000000000128e+00 1.504330000000000034e+01 2.419000000000000039e+00 1.029340000000000011e+01 8.351409999999999556e+00 1.256719999999999970e+01 2.457620000000000005e+01 1.361159999999999926e+01 1.317839999999999989e+01 9.666719999999999757e+00 3.928209999999999980e+00 8.876079999999999970e+00 6.899289999999999701e+00 6.176490000000000258e+00 1.151590000000000025e+01 2.175100000000000089e-01 1.236300000000000038e-01 8.581550000000000011e+00 9.793250000000000455e+00 3.926359999999999850e+00 1.287439999999999962e+01 2.074709999999999965e+01 1.107540000000000013e+01 2.266420000000000101e+00 1.100680000000000014e+01 2.434210000000000207e+00 1.086040000000000028e+01 7.077900000000000302e-01 2.382400000000000073e-01 1.324419999999999931e+01 4.879010000000000069e+00 1.714039999999999964e+01 4.292019999999999946e+00 1.834809999999999874e+01 2.266950000000000021e+00 6.238439999999999763e+00 5.723880000000000301e+00 1.143379999999999974e+01 6.565949999999999953e+00 1.372739999999999938e+01 4.809350000000000236e+00 1.702289999999999992e+01 5.492999999999999966e-02 6.379649999999999821e+00 2.329829999999999846e+00 1.370969999999999978e+01 1.536149999999999949e+01 6.242790000000000283e+00 6.218700000000000117e+00 8.828979999999999606e+00 8.430759999999999366e+00 9.650740000000000762e+00 9.296900000000000830e+00 1.726069999999999993e+01 3.298490000000000144e+00 8.341110000000000468e+00 3.845239999999999991e+00 1.836959999999999837e+01 1.162110000000000021e+01 6.181000000000000050e+00 2.366929999999999978e+01 7.125790000000000290e+00 6.819370000000000154e+00 2.516339999999999932e+01 5.493149999999999977e+00 1.448789999999999978e+01 3.231079999999999952e+00 3.913530000000000175e+00 1.705600000000000094e+01 1.872550000000000026e+01 6.565199999999999925e+00 1.066479999999999961e+01 6.436160000000000103e+00 4.438670000000000115e+00 4.549920000000000186e+00 2.171590000000000131e+01 1.682669999999999888e+01 1.463160000000000061e+01 1.141949999999999932e+01 1.306349999999999945e+01 3.940630000000000077e+00 1.598429999999999929e+01 1.727749999999999986e+01 1.709359999999999857e+01 2.181159999999999854e+01 1.508820000000000050e+01 1.109490000000000087e+01 2.190749999999999886e+01 6.256269999999999776e+00 1.101750000000000007e+01 2.215820000000000078e+01 6.450750000000000206e+00 1.080160000000000053e+01 2.583990000000000009e+00 1.487170000000000059e+01 1.734830000000000094e+00 1.321790000000000020e+01 6.981480000000000352e+00 1.046269999999999989e+01 1.462379999999999924e+01 1.333820000000000050e+01 1.317099999999999937e+01 3.045139999999999958e+00 9.593000000000000138e-02 9.424419999999999575e+00 2.785270000000000135e+00 9.376039999999999708e+00 4.787840000000000096e+00 2.451389999999999958e+01 1.272990000000000066e+01 1.268130000000000024e+01 1.556470000000000020e+01 6.298099999999999810e+00 1.085720000000000063e+01 8.774649999999999395e+00 7.317020000000000302e+00 6.275509999999999700e+00 2.024950000000000117e+01 1.112069999999999936e+01 1.535069999999999979e+01 6.446539999999999715e+00 1.561790000000000056e+01 2.033970000000000056e+00 1.777479999999999905e+01 1.570599999999999952e+01 1.153589999999999982e+01 2.441460000000000008e+01 1.464669999999999916e+01 1.415090000000000003e+01 2.189859999999999829e+01 6.221460000000000434e+00 2.848570000000000046e+00 9.336529999999999774e+00 6.722540000000000404e+00 2.960519999999999818e+00 5.392920000000000158e+00 8.931319999999999482e+00 1.330899999999999928e+01 5.412069999999999936e+00 1.008079999999999998e+01 1.664249999999999829e+01 2.154299999999999926e+01 1.499370000000000047e+01 5.655560000000000365e+00 9.878930000000000433e+00 1.089189999999999969e+01 1.917089999999999961e+00 1.624749999999999872e+01 1.538109999999999999e+01 3.488739999999999952e+00 1.660009999999999986e+00 1.538400000000000034e+01 1.554429999999999978e+01 3.151900000000000257e-01 4.258960000000000079e+00 8.595470000000000610e+00 2.660500000000000087e-01 8.463139999999999219e+00 8.827939999999999898e+00 3.030190000000000161e+00 6.270990000000000286e+00 1.507900000000000063e+01 5.810740000000000016e+00 1.062180000000000035e+01 2.050730000000000164e+00 2.445019999999999882e+01 1.512410000000000032e+01 1.068820000000000014e+01 3.947169999999999845e+00 1.521809999999999974e+01 1.065910000000000046e+01 1.255129999999999946e+01 1.520369999999999955e+01 6.509100000000000108e+00 1.746440000000000126e+01 1.277880000000000038e+01 2.189000000000000112e-01 1.272100000000000009e+01 6.356419999999999959e+00 6.630169999999999675e+00 1.238790000000000013e+01 1.077909999999999968e+01 1.540569999999999951e+01 1.555910000000000082e+01 4.727879999999999860e+00 1.282820000000000071e+01 8.771770000000000067e+00 6.543590000000000018e+00 1.544570000000000043e+01 1.530499999999999916e-01 2.041090000000000071e+00 1.539400000000000013e+01 2.473549999999999827e+01 1.160210000000000008e+01 3.097100000000000186e+00 2.184369999999999834e+01 1.755700000000000038e+00 5.817700000000000315e+00 8.978109999999999147e+00 1.581429999999999936e+01 1.049820000000000064e+01 1.937659999999999982e+01 1.070839999999999925e+01 6.893679999999999808e+00 6.409150000000000347e+00 1.099230000000000018e+01 6.390439999999999898e+00 1.611649999999999849e+01 6.538820000000000299e+00 1.475900000000000034e+01 1.809250000000000114e+01 1.093299999999999983e+01 1.061200000000000010e+01 1.636919999999999931e+01 1.683480000000000087e+00 6.213230000000000253e+00 1.216380000000000017e+01 1.397259999999999991e+01 8.224330000000000140e+00 1.363829999999999920e+01 1.086950000000000038e+01 1.460190000000000055e+01 1.890779999999999905e+00 8.667479999999999407e+00 8.850139999999999674e+00 2.178630000000000067e+01 6.239910000000000068e+00 1.527810000000000024e+01 9.306869999999999976e+00 1.101249999999999929e+01 2.628800000000000026e+00 3.130250000000000199e+00 3.007799999999999918e-01 9.185959999999999681e+00 1.582199999999999918e+01 1.083660000000000068e+01 1.100259999999999927e+01 2.313850000000000051e+01 1.214269999999999960e+00 1.145809999999999995e+01 1.160040000000000049e+01 1.358140000000000036e+01 3.378099999999999992e-01 4.254200000000000204e-01 1.530610000000000070e+01 1.117459999999999987e+01 7.659889999999999866e+00 1.519849999999999923e+01 1.548789999999999978e+01 1.589649999999999963e+01 1.665200000000000102e+01 3.992379999999999818e+00 5.693220000000000169e+00 1.321860000000000035e+01 7.532999999999999419e-02 7.129120000000000346e+00 6.019479999999999720e+00 1.446260000000000012e+01 1.476399999999999935e+01 1.087589999999999968e+01 1.030659999999999954e+01 1.266259999999999941e+01 1.724030000000000129e+01 9.888500000000000068e-01 2.740159999999999929e+00 1.053679999999999950e+01 1.073460000000000036e+01 2.062219999999999942e+01 2.661890000000000089e+00 1.490240000000000009e+01 1.003829999999999956e+01 1.474840000000000018e+01 5.853110000000000035e+00 2.262709999999999866e+01 6.239639999999999631e+00 7.092530000000000001e+00 9.801920000000000854e+00 2.567480000000000206e+00 7.089570000000000149e+00 1.767269999999999897e+00 1.349709999999999965e+01 9.023239999999999483e+00 6.779690000000000438e+00 2.430590000000000028e+00 1.564920000000000044e+01 5.897910000000000430e+00 1.707529999999999859e+01 4.120949999999999669e+00 1.231049999999999933e+01 1.574939999999999962e+01 1.534539999999999971e+01 3.639320000000000110e+00 2.282840000000000202e+00 1.058820000000000050e+01 1.937359999999999971e+01 1.684870000000000090e+00 1.105010000000000048e+01 8.156660000000000466e+00 3.893829999999999902e+00 8.566319999999999268e+00 1.026149999999999984e+01 4.420589999999999797e+00 8.742639999999999745e+00 2.244760000000000133e+01 4.252259999999999707e+00 1.736720000000000041e+01 9.361779999999999546e+00 8.928890000000000882e+00 4.699440000000000062e+00 2.651689999999999880e+00 8.488690000000000069e+00 1.303379999999999939e+01 2.136540000000000106e+00 8.557650000000000645e+00 1.298150000000000048e+01 1.472429999999999950e+01 1.706569999999999965e+01 4.359930000000000305e+00 1.524569999999999936e+01 1.739389999999999858e+01 1.296189999999999998e+01 2.077040000000000219e+00 1.682910000000000039e+01 4.265670000000000073e+00 8.749510000000000787e+00 1.731899999999999906e+01 1.300539999999999985e+01 2.086220000000000141e+01 8.889079999999999870e+00 4.507089999999999819e+00 8.781340000000000146e+00 9.071809999999999263e+00 4.289670000000000094e+00 2.131090000000000018e+01 8.643879999999999342e+00 1.295870000000000033e+01 8.380440000000000111e+00 8.996159999999999712e+00 1.313679999999999914e+01 2.114450000000000074e+01 4.305049999999999599e+00 8.902419999999999334e+00 3.314810000000000034e+00 1.274600000000000044e+01 1.712399999999999878e+01 3.296899999999999942e+00 4.347229999999999706e+00 1.739069999999999894e+01 2.249769999999999825e+01 1.305269999999999975e+01 8.519880000000000564e+00 1.027849999999999930e+01 1.295369999999999955e+01 8.735829999999999984e+00 2.279980000000000118e+01 1.305889999999999951e+01 1.744229999999999947e+01 1.000530000000000008e+01 1.341499999999999915e+01 1.732329999999999970e+01 2.267150000000000176e+01 8.693500000000000227e+00 4.002340000000000231e+00 1.489129999999999932e+01 9.295000000000000484e-02 4.738579999999999792e+00 2.513650000000000162e+00 1.678819999999999979e+01 1.302229999999999954e+01 1.531690000000000040e+01 1.991199999999999914e-01 4.353010000000000268e+00 2.147230000000000061e+01 1.704479999999999862e+01 1.324639999999999951e+01 8.022309999999999164e+00 4.209640000000000271e+00 2.494699999999999973e-01 3.370039999999999925e+00 4.084220000000000184e+00 1.370599999999999874e-01 1.594229999999999947e+01 4.252489999999999881e+00 8.513030000000000541e+00 1.629309999999999903e+01 1.305289999999999928e+01 2.527499999999999747e-01 1.623730000000000118e+01 1.308919999999999995e+01 8.776640000000000441e+00 3.774809999999999999e+00 1.309259999999999913e+01 8.563399999999999679e+00 1.661400000000000077e+01 4.071259999999999657e+00 4.415639999999999787e+00 1.251779999999999937e+01 4.613209999999999589e+00 4.672539999999999694e+00 2.491499999999999915e+01 4.006540000000000212e+00 1.317769999999999975e+01 1.228659999999999997e+01 4.342069999999999652e+00 1.316130000000000067e+01 2.509450000000000003e+01 1.308869999999999933e+01 4.612330000000000041e+00 1.282830000000000048e+01 1.310549999999999926e+01 4.269090000000000273e+00 2.527830000000000155e+01 1.288480000000000025e+01 1.286839999999999939e+01 1.257080000000000020e+01 1.306230000000000047e+01 1.292849999999999966e+01 2.517699999999999960e+01 8.657880000000000464e+00 8.580090000000000217e+00 6.450730000000000075e+00 8.820159999999999556e+00 8.871069999999999567e+00 1.839290000000000092e+01 8.879350000000000520e+00 1.739760000000000062e+01 6.186139999999999972e+00 8.848110000000000142e+00 1.700059999999999860e+01 1.844320000000000093e+01 1.718789999999999907e+01 8.776400000000000645e+00 6.566169999999999618e+00 1.732730000000000103e+01 8.332779999999999632e+00 1.881980000000000075e+01 1.722109999999999985e+01 3.040300000000000225e-01 5.957150000000000389e+00 1.743880000000000052e+01 1.039500000000000007e-01 1.887750000000000128e+01 4.729599999999999915e-01 6.117429999999999701e+00 1.130319999999999991e+00 1.729520000000000124e+01 6.298569999999999780e+00 1.373930000000000007e+01 1.333199999999999941e-01 1.477490000000000059e+01 6.678800000000000292e-01 1.663739999999999952e+01 1.469819999999999993e+01 1.405330000000000013e+01 8.838200000000000500e+00 6.284659999999999691e+00 1.175859999999999905e+00 8.512100000000000222e+00 5.636730000000000018e+00 1.366709999999999958e+01 8.491799999999999571e+00 1.472170000000000023e+01 8.428700000000000081e-01 8.531560000000000699e+00 1.483039999999999914e+01 1.367839999999999989e+01 2.572400000000000242e-01 2.471119999999999983e+00 1.040530000000000044e+01 1.733780000000000143e+01 2.569840000000000124e+00 2.266150000000000020e+01 1.697739999999999938e+01 1.166039999999999921e+01 9.248889999999999390e+00 1.728810000000000002e+01 1.113279999999999959e+01 2.204289999999999949e+01 8.874710000000000321e+00 2.799059999999999881e+00 1.034529999999999994e+01 9.418760000000000687e+00 2.661659999999999915e+00 2.260279999999999845e+01 8.712839999999999918e+00 1.122419999999999973e+01 9.651020000000000820e+00 8.728289999999999438e+00 1.121020000000000039e+01 2.226190000000000069e+01 1.741880000000000095e+01 7.282000000000000028e+00 5.171719999999999651e+00 5.415999999999999981e-02 6.692479999999999762e+00 1.759219999999999828e+01 3.930000000000000160e-02 1.605890000000000128e+01 4.950969999999999871e+00 1.724569999999999936e+01 1.584130000000000038e+01 1.769579999999999842e+01 8.871769999999999712e+00 7.135729999999999684e+00 4.923140000000000072e+00 8.852669999999999817e+00 6.863389999999999880e+00 1.785739999999999839e+01 8.836169999999999192e+00 1.560660000000000025e+01 5.153590000000000337e+00 8.966390000000000526e+00 1.507910000000000039e+01 1.721590000000000131e+01 4.009999999999999676e-03 2.732060000000000155e+00 1.412379999999999969e+00 1.735970000000000013e+01 2.423789999999999889e+00 1.420659999999999989e+01 1.739689999999999870e+01 1.105100000000000016e+01 8.783600000000000296e-01 1.695329999999999870e+01 1.107590000000000074e+01 1.432610000000000028e+01 8.912069999999999936e+00 2.783059999999999867e+00 1.560419999999999918e+00 8.828799999999999315e+00 2.242879999999999985e+00 1.335689999999999955e+01 8.439450000000000784e+00 1.097269999999999968e+01 9.690999999999999615e-01 8.618140000000000356e+00 1.123290000000000077e+01 1.328989999999999938e+01 1.456590000000000051e+00 8.490119999999999223e+00 7.633869999999999933e+00 1.600629999999999997e+00 8.185800000000000409e+00 2.005949999999999989e+01 1.659540000000000015e+00 3.738000000000000211e-01 7.074130000000000251e+00 1.900039999999999951e+00 1.711139999999999972e+01 2.005280000000000129e+01 1.036050000000000004e+01 8.826320000000000832e+00 7.710639999999999716e+00 1.057010000000000005e+01 9.105829999999999202e+00 1.923900000000000077e+01 1.045599999999999952e+01 1.732539999999999836e+01 7.643360000000000376e+00 1.066789999999999949e+01 1.100700000000000012e-01 1.938319999999999865e+01 1.580370000000000053e+00 4.072840000000000238e+00 4.135080000000000311e+00 1.440739999999999910e+00 4.199930000000000163e+00 1.663500000000000156e+01 2.073469999999999924e+00 1.348680000000000057e+01 3.357720000000000038e+00 1.076179999999999914e+00 1.298199999999999932e+01 1.630270000000000152e+01 1.050459999999999994e+01 4.843899999999999650e+00 3.987719999999999931e+00 1.037780000000000058e+01 4.170729999999999826e+00 1.609499999999999886e+01 1.077710000000000079e+01 1.285740000000000016e+01 3.264860000000000095e+00 1.025290000000000035e+01 1.288449999999999918e+01 1.607529999999999859e+01 1.048359999999999959e+00 4.177419999999999689e+00 7.289419999999999789e+00 1.668509999999999938e+00 3.878159999999999830e+00 2.003610000000000113e+01 1.505810000000000093e+00 1.324719999999999942e+01 6.970419999999999838e+00 1.941619999999999902e+00 1.332900000000000063e+01 1.958780000000000143e+01 1.094929999999999914e+01 4.875619999999999621e+00 7.747700000000000031e+00 1.092120000000000068e+01 4.240269999999999762e+00 1.974719999999999942e+01 1.038519999999999932e+01 1.271460000000000079e+01 7.079799999999999649e+00 1.064359999999999928e+01 1.273620000000000019e+01 1.993969999999999843e+01 1.985179999999999945e+00 8.648350000000000648e+00 1.157440000000000069e+01 2.600200000000000067e+00 8.508269999999999555e+00 2.377019999999999911e+01 2.603950000000000209e+00 1.717500000000000071e+01 1.064419999999999966e+01 2.600699999999999790e+00 1.423200000000000021e-01 2.372769999999999868e+01 1.138760000000000083e+01 8.540359999999999729e+00 1.129369999999999941e+01 1.119340000000000046e+01 8.737289999999999779e+00 2.410170000000000101e+01 1.113129999999999953e+01 1.737519999999999953e+01 1.106310000000000038e+01 1.183000000000000007e+01 1.737819999999999965e+01 2.394170000000000087e+01 2.588000000000000078e+00 1.947299999999999864e-01 2.131289999999999907e+00 2.285270000000000135e+00 3.522999999999999743e-02 1.471749999999999936e+01 2.376869999999999816e+00 9.350490000000000634e+00 2.341279999999999806e+00 2.525949999999999918e+00 8.960940000000000794e+00 1.511439999999999984e+01 1.100910000000000011e+01 1.724859999999999971e+01 1.715929999999999955e+00 1.168970000000000020e+01 3.138099999999999778e-01 1.479899999999999949e+01 1.171480000000000032e+01 8.718719999999999359e+00 2.267100000000000115e+00 1.135829999999999984e+01 8.499530000000000030e+00 1.529679999999999929e+01 2.425809999999999800e+00 4.371660000000000323e+00 1.119580000000000020e+01 3.055200000000000138e+00 4.764199999999999768e+00 2.357610000000000028e+01 2.931849999999999845e+00 1.262529999999999930e+01 1.064209999999999923e+01 2.688800000000000079e+00 1.289649999999999963e+01 2.387190000000000012e+01 1.149699999999999989e+01 4.952130000000000365e+00 1.191130000000000067e+01 1.185519999999999996e+01 4.102229999999999599e+00 2.366989999999999839e+01 1.142019999999999946e+01 1.287180000000000035e+01 1.115750000000000064e+01 1.105680000000000085e+01 1.291430000000000078e+01 2.468550000000000111e+01 3.899369999999999781e+00 6.856440000000000090e+00 4.033879999999999910e+00 4.039270000000000138e+00 6.707720000000000127e+00 1.710239999999999938e+01 4.125860000000000305e+00 1.601360000000000028e+01 4.563369999999999926e+00 4.363159999999999705e+00 1.564710000000000001e+01 1.689349999999999952e+01 1.309319999999999951e+01 7.159639999999999560e+00 5.203420000000000378e+00 1.279429999999999978e+01 6.741660000000000430e+00 1.769470000000000098e+01 1.271720000000000006e+01 1.526559999999999917e+01 4.623840000000000394e+00 1.275249999999999950e+01 1.581390000000000029e+01 1.728430000000000177e+01 4.459710000000000285e+00 2.703390000000000182e+00 5.082699999999999996e-01 4.006870000000000154e+00 2.586629999999999985e+00 1.354879999999999995e+01 4.420300000000000118e+00 1.165980000000000061e+01 1.314729999999999954e+00 4.107079999999999842e+00 1.162410000000000032e+01 1.378659999999999997e+01 1.256409999999999982e+01 2.864660000000000206e+00 1.517060000000000075e+00 1.261739999999999995e+01 2.793190000000000062e+00 1.362589999999999968e+01 1.343989999999999974e+01 1.144849999999999923e+01 1.163990000000000080e+00 1.285929999999999929e+01 1.126679999999999993e+01 1.375319999999999965e+01 4.107039999999999580e+00 6.785999999999999588e+00 9.092320000000000846e+00 4.674649999999999750e+00 6.822820000000000107e+00 2.118309999999999960e+01 4.561090000000000089e+00 1.576200000000000045e+01 7.982510000000000439e+00 4.289489999999999803e+00 1.564959999999999951e+01 2.144020000000000081e+01 1.339920000000000044e+01 6.980640000000000178e+00 8.961930000000000618e+00 1.309810000000000052e+01 6.905960000000000321e+00 2.164349999999999952e+01 1.287839999999999918e+01 1.582119999999999926e+01 8.704399999999999693e+00 1.280020000000000024e+01 1.546630000000000038e+01 2.166809999999999903e+01 4.521860000000000213e+00 6.262050000000000338e+00 9.109800000000000120e-01 4.063419999999999810e+00 6.083350000000000257e+00 1.381649999999999956e+01 4.202619999999999578e+00 1.488899999999999935e+01 7.641799999999999704e-01 3.177519999999999900e+00 1.472579999999999956e+01 1.331429999999999936e+01 1.304739999999999966e+01 6.174750000000000405e+00 7.135899999999999466e-01 1.364579999999999949e+01 6.118369999999999642e+00 1.421640000000000015e+01 1.317430000000000057e+01 1.463460000000000072e+01 1.056589999999999918e+00 1.243290000000000006e+01 1.461689999999999934e+01 1.346189999999999998e+01 4.653419999999999668e+00 2.008350000000000080e+00 4.292259999999999742e+00 4.458789999999999587e+00 1.480410000000000004e+00 1.759179999999999922e+01 4.527140000000000164e+00 1.032440000000000069e+01 5.075169999999999959e+00 4.262150000000000105e+00 1.009999999999999964e+01 1.763759999999999906e+01 1.303439999999999976e+01 1.369269999999999987e+00 5.033249999999999780e+00 1.312260000000000026e+01 1.687480000000000091e+00 1.752670000000000172e+01 1.291070000000000029e+01 1.055979999999999919e+01 5.150059999999999860e+00 1.316249999999999964e+01 1.042319999999999958e+01 1.754729999999999990e+01 4.510699999999999932e+00 1.920670000000000099e+00 8.225319999999999965e+00 4.272400000000000198e+00 1.784189999999999943e+00 2.125270000000000081e+01 3.995929999999999982e+00 1.040010000000000012e+01 8.576919999999999433e+00 4.407989999999999853e+00 1.048380000000000045e+01 2.072159999999999869e+01 1.295800000000000018e+01 1.766029999999999989e+00 9.109799999999999898e+00 1.367750000000000021e+01 1.443009999999999904e+00 2.126599999999999824e+01 1.316200000000000081e+01 1.035960000000000036e+01 9.426719999999999544e+00 1.272330000000000005e+01 1.061759999999999948e+01 2.175300000000000011e+01 5.495449999999999946e+00 4.782840000000000202e+00 1.124510000000000076e+01 6.351130000000000386e+00 4.815540000000000376e+00 2.370570000000000022e+01 5.800559999999999938e+00 1.362560000000000038e+01 1.170819999999999972e+01 6.159939999999999749e+00 1.312480000000000047e+01 2.394359999999999999e+01 1.484529999999999994e+01 4.412939999999999863e+00 1.183210000000000051e+01 1.512379999999999924e+01 3.955909999999999815e+00 2.463380000000000081e+01 1.486619999999999919e+01 1.292379999999999995e+01 1.152190000000000047e+01 1.433929999999999971e+01 1.288669999999999938e+01 2.362879999999999825e+01 6.007780000000000342e+00 1.716649999999999920e+01 2.455900000000000194e+00 5.460569999999999702e+00 1.742299999999999827e+01 1.427330000000000076e+01 6.252790000000000070e+00 8.579079999999999373e+00 2.270030000000000214e+00 5.976840000000000153e+00 8.612650000000000361e+00 1.517130000000000045e+01 1.469459999999999944e+01 2.336999999999999841e-02 2.440469999999999917e+00 1.499119999999999919e+01 3.924699999999999855e-01 1.536139999999999972e+01 1.501360000000000028e+01 8.546490000000000364e+00 3.085339999999999971e+00 1.486550000000000082e+01 8.338290000000000646e+00 1.565520000000000067e+01 5.917370000000000019e+00 9.078900000000000858e+00 1.149130000000000074e+01 5.825510000000000410e+00 9.148020000000000707e+00 2.400979999999999848e+01 5.988360000000000127e+00 1.733210000000000051e+01 1.072369999999999912e+01 6.153150000000000119e+00 1.734669999999999845e+01 2.341900000000000048e+01 1.466939999999999955e+01 8.259990000000000165e+00 1.155189999999999984e+01 1.492029999999999923e+01 8.806190000000000850e+00 2.352329999999999899e+01 1.463949999999999996e+01 2.344999999999999862e-01 1.127280000000000015e+01 1.507199999999999918e+01 1.728450000000000131e+01 2.361749999999999972e+01 6.897789999999999644e+00 4.551420000000000243e+00 4.031579999999999941e+00 6.923009999999999664e+00 3.505790000000000184e+00 1.589700000000000024e+01 7.058200000000000252e+00 1.325339999999999918e+01 3.667800000000000171e+00 6.744390000000000107e+00 1.282809999999999917e+01 1.600910000000000011e+01 1.574559999999999960e+01 5.140590000000000437e+00 3.028420000000000112e+00 1.542800000000000082e+01 4.127600000000000158e+00 1.642660000000000053e+01 1.565119999999999933e+01 1.318560000000000088e+01 3.618199999999999861e+00 1.519159999999999933e+01 1.302590000000000003e+01 1.654269999999999996e+01 6.864049999999999763e+00 8.389870000000000161e+00 7.377489999999999881e+00 7.224339999999999762e+00 8.805089999999999861e+00 1.991890000000000072e+01 7.107789999999999608e+00 2.164699999999999958e-01 6.812100000000000044e+00 7.137500000000000178e+00 1.682219999999999871e+01 1.946130000000000138e+01 1.554899999999999949e+01 8.812450000000000117e+00 7.816230000000000011e+00 1.556000000000000050e+01 8.377769999999999939e+00 1.977580000000000027e+01 1.578350000000000009e+01 3.406600000000000183e-01 7.185010000000000119e+00 1.557939999999999969e+01 5.728799999999999448e-01 1.981350000000000122e+01 7.107169999999999987e+00 4.560270000000000046e+00 7.368649999999999700e+00 7.020629999999999704e+00 3.934190000000000076e+00 2.001409999999999911e+01 6.548720000000000319e+00 1.309580000000000055e+01 7.242869999999999919e+00 6.845889999999999809e+00 1.321790000000000020e+01 2.006759999999999877e+01 1.505410000000000004e+01 4.327169999999999739e+00 7.538249999999999673e+00 1.575580000000000069e+01 4.676449999999999996e+00 2.069810000000000016e+01 1.495509999999999984e+01 1.363189999999999991e+01 7.537250000000000227e+00 1.515329999999999977e+01 1.269229999999999947e+01 2.023679999999999879e+01 9.094920000000000115e+00 1.772270000000000012e+00 4.957440000000000069e+00 8.649390000000000356e+00 1.130689999999999973e+00 1.707140000000000057e+01 8.384370000000000545e+00 1.021480000000000032e+01 5.175589999999999691e+00 8.443720000000000780e+00 1.037439999999999962e+01 1.723799999999999955e+01 1.681619999999999848e+01 1.807960000000000012e+00 4.807750000000000412e+00 3.405000000000000249e-01 1.835069999999999979e+00 1.800250000000000128e+01 1.720690000000000097e+01 1.065629999999999988e+01 5.500420000000000087e+00 3.098899999999999988e-01 1.020010000000000083e+01 1.806500000000000128e+01 8.658820000000000405e+00 6.062190000000000190e+00 1.017309999999999981e+01 8.917579999999999174e+00 6.205519999999999925e+00 2.211230000000000118e+01 8.688670000000000115e+00 1.509190000000000076e+01 9.568979999999999819e+00 9.044029999999999347e+00 1.469570000000000043e+01 2.257199999999999918e+01 1.723570000000000135e+01 6.183209999999999873e+00 1.001420000000000066e+01 4.549099999999999810e-01 5.836500000000000021e+00 2.279189999999999827e+01 1.729360000000000142e+01 1.505230000000000068e+01 9.049680000000000391e+00 1.836000000000000132e-01 1.466549999999999976e+01 2.237849999999999895e+01