6.151170000000000249e-01 -7.486639999999999961e-01 -6.450599999999999390e-02 4.603419999999999734e-01 -1.984259999999999913e-01 6.655389999999999917e-01 2.497149999999999925e-01 -4.359199999999999880e-02 -9.647200000000000220e-02 1.092029999999999945e-01 9.874099999999999544e-02 6.901119999999999477e-01 3.401839999999999864e-01 7.051420000000000465e-01 -4.646529999999999827e-01 6.876200000000000367e-02 5.593970000000000331e-01 -3.189989999999999770e-01 1.131323000000000079e+00 9.094170000000000309e-01 9.083099999999999508e-02 -1.287609999999999866e-01 -4.675540000000000251e-01 3.846000000000000026e-03 1.538800000000000064e-02 7.868150000000000421e-01 1.229093999999999909e+00 1.909359999999999946e-01 -1.068500000000000005e-02 1.889959999999999973e-01 -2.328260000000000052e-01 4.693220000000000169e-01 -4.243700000000000250e-01 -1.631120000000000070e-01 -1.151650000000000035e-01 -2.148220000000000129e-01 -2.646589999999999776e-01 -3.101200000000000068e-01 2.165660000000000085e-01 4.909490000000000243e-01 -2.464550000000000074e-01 -6.978250000000000286e-01 1.460599999999999919e-02 -7.048500000000000598e-02 -4.069869999999999877e-01 1.051967000000000096e+00 1.796065000000000023e+00 -2.911960000000000104e-01 -5.430390000000000494e-01 -4.840619999999999923e-01 3.892619999999999969e-01 -1.857560000000000044e-01 -1.525630000000000042e-01 3.300469999999999793e-01 3.674129999999999896e-01 1.722499999999999865e-01 2.829079999999999928e-01 4.049269999999999814e-01 -1.592299999999999965e-02 2.931670000000000109e-01 3.611779999999999990e-01 -1.612649999999999917e-01 -1.635000000000000064e-01 -3.800959999999999894e-01 1.815539999999999932e-01 3.385770000000000168e-01 5.007000000000000339e-02 7.986020000000000341e-01 -7.858910000000000062e-01 3.533680000000000154e-01 8.330959999999999477e-01 -5.632199999999999707e-02 -6.338749999999999662e-01 2.249259999999999871e-01 -1.419340000000000046e-01 3.539749999999999841e-01 1.274909999999999932e-01 5.389279999999999626e-01 1.549939999999999929e-01 1.209120000000000056e-01 1.324660000000000004e-01 8.104749999999999455e-01 2.531990000000000074e-01 -6.668699999999999628e-01 -1.297699999999999965e-01 -3.774649999999999950e-01 7.506880000000000219e-01 6.569770000000000332e-01 1.565060000000000062e-01 -5.519500000000000101e-02 8.454629999999999646e-01 4.989959999999999951e-01 -1.193199999999999955e-01 -1.509369999999999878e-01 -8.308309999999999862e-01 3.607290000000000219e-01 -8.713079999999999714e-01 7.122299999999999465e-02 5.516170000000000240e-01 -1.489379999999999871e-01 -1.223589999999999955e-01 -3.646249999999999769e-01 -7.557230000000000336e-01 -1.425559999999999883e-01 -1.542890000000000095e-01 1.395024000000000042e+00 7.099800000000000555e-01 -5.798680000000000501e-01 7.322499999999999842e-02 -5.703620000000000356e-01 3.647799999999999931e-01 2.929669999999999774e-01 -1.183020000000000044e-01 -1.879540000000000100e-01 -1.006100000000000050e-01 -6.301510000000000167e-01 3.732389999999999874e-01 8.104200000000000292e-02 2.313800000000000023e-01 -1.194339999999999985e-01 -2.726999999999999910e-02 3.194679999999999742e-01 1.776590000000000114e-01 2.158640000000000003e-01 3.085829999999999962e-01 -3.481210000000000138e-01 2.216365000000000141e+00 1.956799999999999928e-01 -1.378381999999999996e+00 2.036969999999999892e-01 -8.219500000000000417e-02 -7.037870000000000514e-01 -7.048400000000000498e-02 6.695099999999999663e-02 -1.132009999999999961e-01 1.104713000000000056e+00 8.627289999999999681e-01 2.996690000000000187e-01 1.484119999999999884e-01 -2.288519999999999999e-01 -1.648700000000000165e-02 -1.543430000000000080e-01 6.966710000000000402e-01 -3.736119999999999997e-01 -9.412700000000000233e-02 -2.679030000000000022e-01 3.473970000000000113e-01 -1.934269999999999878e-01 3.675500000000000295e-02 -2.767589999999999772e-01 -1.239737000000000089e+00 -2.046429999999999916e-01 1.063390000000000030e-01 3.075039999999999996e-01 -6.751690000000000191e-01 -6.156699999999999673e-02 2.422719999999999874e-01 3.122099999999999875e-02 2.347569999999999935e-01 -1.116640999999999995e+00 1.468830000000000136e-01 -5.105279999999999818e-01 -1.830469999999999875e-01 6.957919999999999661e-01 -3.248179999999999956e-01 -4.780380000000000185e-01 1.938189999999999913e-01 -3.349559999999999760e-01 -2.786589999999999900e-01 -9.915599999999999414e-02 -2.868800000000000239e-01 -5.142300000000000343e-02 -4.722569999999999824e-01 2.564449999999999785e-01 7.797309999999999519e-01 -1.752400000000000138e-02 -3.258980000000000210e-01 2.580359999999999876e-01 -6.502120000000000122e-01 6.066049999999999498e-01 1.450420000000000043e-01 6.605680000000000440e-01 -1.683089999999999864e-01 6.736919999999999575e-01 4.411590000000000233e-01 -2.323340000000000127e-01 -7.784099999999999353e-02 -3.416239999999999832e-01 1.371300000000000019e-01 6.545630000000000059e-01 -2.760449999999999848e-01 -1.429169999999999885e-01 -8.261650000000000382e-01 -2.792979999999999907e-01 -3.492899999999999894e-01 -9.944899999999999574e-02 2.401040000000000119e-01 -7.258130000000000415e-01 6.581069999999999975e-01 5.222120000000000095e-01 2.632650000000000268e-01 1.374999999999999920e-03 -7.385200000000000098e-02 -3.070410000000000084e-01 2.286900000000000044e-02 -4.876820000000000044e-01 -2.020669999999999966e-01 1.905099999999999849e-02 2.967090000000000005e-01 3.386950000000000238e-01 6.075300000000000145e-02 -6.967900000000000482e-02 -1.386599999999999985e-02 -2.179109999999999936e-01 7.279320000000000235e-01 3.073609999999999953e-01 -9.593899999999999650e-02 -4.494690000000000074e-01 -3.801499999999999879e-01 1.638660000000000116e-01 -2.279740000000000100e-01 4.782950000000000257e-01 -3.183520000000000238e-01 1.865499999999999936e-01 -2.388760000000000050e-01 -7.480100000000000637e-02 -3.410619999999999763e-01 -3.383160000000000056e-01 2.745340000000000003e-01 1.443999999999999971e-02 -2.210769999999999957e-01 -2.505749999999999922e-01 4.773000000000000159e-02 1.001839999999999953e-01 5.268680000000000030e-01 1.982839999999999880e-01 -9.040510000000000490e-01 -7.976429999999999909e-01 -2.379239999999999966e-01 -1.506550000000000111e-01 -6.837760000000000504e-01 -6.409999999999999899e-03 -5.290850000000000275e-01 -1.650699999999999945e-01 -3.991290000000000115e-01 3.267410000000000037e-01 -1.162070000000000047e-01 3.160950000000000149e-01 1.003724000000000061e+00 -9.668419999999999792e-01 -3.676590000000000136e-01 -6.406539999999999457e-01 4.048800000000000315e-02 8.292299999999999671e-02 1.025490000000000013e-01 -7.709230000000000249e-01 -7.589500000000000413e-02 -1.279825999999999908e+00 9.848749999999999449e-01 -5.780920000000000503e-01 2.835630000000000095e-01 7.062899999999999734e-02 -2.973020000000000107e-01 -3.261760000000000215e-01 -1.149972999999999912e+00 -1.220080000000000053e-01 -2.267470000000000041e-01 -1.157923999999999953e+00 -1.406090000000000118e-01 -4.592450000000000143e-01 -2.616800000000000029e-02 -3.603300000000000253e-02 1.739010000000000000e-01 -4.168780000000000263e-01 1.488150000000000028e-01 2.437469999999999914e-01 1.091180000000000067e-01 1.764330000000000065e-01 -7.350800000000000389e-02 3.619300000000000295e-02 -6.969000000000000368e-03 -3.429030000000000133e-01 7.363999999999999886e-03 9.883140000000000258e-01 -1.056620000000000059e-01 -2.184200000000000030e-02 6.875139999999999585e-01 -2.045130000000000003e-01 -4.040420000000000122e-01 2.998439999999999994e-01 3.177630000000000177e-01 1.332073999999999980e+00 2.687320000000000264e-01 -3.566070000000000073e-01 1.494693999999999967e+00 -4.347460000000000213e-01 2.118530000000000135e-01 2.647979999999999778e-01 3.116760000000000086e-01 1.494870000000000088e-01 6.549589999999999579e-01 7.201000000000000456e-02 -8.179769999999999541e-01 -1.933829999999999993e-01 4.660509999999999931e-01 -1.477829999999999977e-01 1.642290000000000139e-01 -8.111300000000000454e-02 -3.005380000000000273e-01 4.224339999999999762e-01 -3.916499999999999981e-01 6.707699999999999774e-02 -9.007600000000000329e-02 8.044679999999999609e-01 -1.186299999999999993e-01 2.066550000000000054e-01 -5.664160000000000306e-01 -7.039570000000000549e-01 -1.057800000000000074e+00 -1.427319999999999978e-01 3.101940000000000253e-01 -1.294919999999999960e-01 4.165619999999999878e-01 2.361429999999999918e-01 9.133000000000000493e-03 -1.869470000000000021e-01 3.999500000000000277e-02 6.216939999999999689e-01 -8.569000000000000228e-03 -6.253959999999999519e-01 -4.338319999999999954e-01 -1.300632999999999928e+00 -2.786279999999999868e-01 -6.585999999999999840e-03 -4.336969999999999992e-01 -2.003080000000000138e-01 2.442400000000000126e-02 -2.319749999999999868e-01 1.021920000000000051e-01 -7.071000000000000028e-03 -3.407020000000000048e-01 3.072719999999999896e-01 9.486300000000000288e-02 -1.964019999999999933e-01 -1.840999999999999972e-03 -1.134686000000000083e+00 -3.751829999999999887e-01 -5.257060000000000066e-01 -3.293399999999999800e-02 -1.099299999999999930e-02 9.294700000000000184e-02 -1.169005000000000072e+00 1.576670000000000016e-01 1.121059999999999973e-01 -6.723059999999999592e-01 -5.467400000000000038e-01 -1.217860000000000054e-01 -3.557359999999999967e-01 -7.125099999999999489e-02 2.294660000000000033e-01 -1.647275000000000045e+00 -2.734400000000000025e-02 -3.281640000000000112e-01 1.315429999999999933e-01 -6.566419999999999479e-01 8.054440000000000488e-01 6.205669999999999797e-01 1.158444999999999947e+00 4.863000000000000135e-03 -2.175020000000000009e-01 -1.087995000000000045e+00 -2.230060000000000098e-01 1.680449999999999999e-01 2.919370000000000021e-01 -3.046139999999999959e-01 1.024013999999999980e+00 7.069680000000000408e-01 9.217999999999999805e-02 1.049118999999999913e+00 -5.297049999999999814e-01 1.276259999999999950e+00 1.917585000000000095e+00 -1.701189999999999924e-01 1.027298999999999962e+00 1.869240000000000068e-01 2.884660000000000002e-01 -1.501069999999999904e-01 1.002140000000000031e+00 4.403259999999999952e-01 1.011574999999999891e+00 2.417839999999999989e-01 9.831539999999999724e-01 -4.075810000000000266e-01 -2.586099999999999857e-02 9.678670000000000329e-01 -7.638329999999999842e-01 -3.344659999999999855e-01 6.316040000000000543e-01 1.254089999999999927e-01 -9.157359999999999944e-01 -4.910340000000000260e-01 -6.524769999999999737e-01 -3.152690000000000214e-01 -7.384579999999999478e-01 1.723099999999999909e-01 1.053501000000000021e+00 -6.082300000000000484e-01 2.449800000000000033e-01 -1.131561999999999957e+00 -1.960000000000000075e-01 -5.879950000000000454e-01 -4.618329999999999935e-01 9.037699999999999900e-02 3.427729999999999944e-01 1.297429999999999972e-01 4.540259999999999851e-01 1.209859999999999963e-01 -7.068299999999999583e-02 -5.344820000000000126e-01 -2.804300000000000126e-01 9.539330000000000309e-01 2.840090000000000114e-01 4.221320000000000072e-01 2.287270000000000136e-01 8.138269999999999671e-01 -4.693100000000000049e-02 -7.713379999999999681e-01 -9.461100000000000065e-02 -6.187160000000000437e-01 -2.602979999999999738e-01 -1.018988000000000005e+00 -4.614070000000000116e-01 -3.157670000000000199e-01 -2.167669999999999875e-01 -3.236280000000000268e-01 -7.051380000000000425e-01 -6.668859999999999788e-01 1.814379999999999882e-01 1.827479999999999938e-01 -1.418790000000000051e-01 1.163109999999999977e-01 -1.170970999999999984e+00 1.068069999999999992e-01 -6.805550000000000210e-01 -8.850470000000000281e-01 2.548039999999999750e-01 4.696060000000000234e-01 -1.765279999999999905e-01 -5.815100000000000130e-02 3.096349999999999936e-01 9.159799999999999887e-02 -2.141109999999999958e-01 4.775280000000000080e-01 4.565560000000000174e-01 1.490080000000000016e-01 -2.215100000000000055e-02 -6.351800000000000501e-02 1.278575000000000017e+00 -1.930058999999999969e+00 -2.693980000000000263e-01 -3.565000000000000027e-03 -1.590100000000000124e-01 -2.649259999999999948e-01 3.203170000000000184e-01 2.986320000000000086e-01 -2.225900000000000101e-02 9.070200000000000484e-02 3.208320000000000061e-01 -7.979500000000000481e-02 -2.137930000000000108e-01 -4.188959999999999906e-01 1.417259999999999909e-01 -5.235610000000000541e-01 -4.957849999999999757e-01 -6.140299999999999925e-02 4.016270000000000118e-01 2.357640000000000013e-01 -5.548990000000000311e-01 -1.776870000000000116e-01 -4.923120000000000274e-01 -3.491699999999999665e-02 7.680160000000000320e-01 -9.583800000000000652e-02 3.368840000000000168e-01 -5.018430000000000391e-01 -8.900430000000000286e-01 -4.249569999999999736e-01 7.128800000000000414e-02 1.796345000000000081e+00 3.702898999999999941e+00 9.029000000000000359e-01 -2.107537000000000216e+00 -9.439599999999999380e-02 1.263309999999999933e+00 1.963449000000000000e+00 -3.381959999999999966e-01 1.077566000000000024e+00 6.911310000000000509e-01 -1.672206999999999999e+00 1.544893999999999989e+00 6.597739999999999716e-01 -1.312027000000000054e+00 2.250169999999999948e-01 6.592440000000000522e-01 3.343010000000000148e-01 -1.336198999999999915e+00 1.482631000000000032e+00 -2.633389999999999898e-01 -5.763340000000000130e-01 -1.807110000000000105e-01 -5.934209999999999763e-01 3.595920000000000227e-01 -5.477239999999999887e-01 -1.631057999999999897e+00 -4.732979999999999965e-01 3.649549999999999739e-01 1.209297999999999984e+00 -1.199322999999999917e+00 1.346174999999999899e+00 1.620069999999999899e+00 -8.764900000000000468e-02 1.549577999999999900e+00 -8.155850000000000044e-01 -5.544109999999999872e-01 -2.756259999999999821e-01 -1.424900999999999973e+00 3.154499999999999665e-02 -3.416219999999999812e-01 -1.262486999999999915e+00 -1.087822000000000067e+00 8.578249999999999487e-01 -3.149109000000000158e+00 -6.267089999999999606e-01 2.098609999999999920e-01 -1.461041999999999952e+00 -8.882440000000000335e-01 1.301941000000000015e+00 3.328949999999999965e-01 1.714390000000000081e-01 2.058790000000000064e-01 8.366130000000000511e-01 -1.610989000000000004e+00 -2.106987000000000165e+00 7.380609999999999671e-01 -3.040570000000000217e-01 -1.271750000000000103e-01 2.460659000000000152e+00 1.584622999999999893e+00 1.306254000000000026e+00 1.299289999999999889e-01 5.236389999999999656e-01 1.195171999999999901e+00 2.096732999999999958e+00 -1.275300000000000045e-01 1.380633999999999917e+00 7.795079999999999787e-01 8.838519999999999710e-01 -3.790189999999999948e-01 -5.919919999999999627e-01 1.480283000000000015e+00 -1.401729999999999920e-01 1.634249000000000063e+00 -2.250996000000000219e+00 -4.935550000000000215e-01 -1.624392000000000058e+00 1.439343999999999957e+00 -7.306540000000000257e-01 -2.125922999999999785e+00 1.093530000000000058e-01 1.075032999999999905e+00 -1.925429999999999975e+00 2.238267000000000007e+00 -1.291665000000000063e+00 7.825400000000000411e-02 2.187860000000000082e-01 2.550753999999999966e+00 -9.147729999999999473e-01 9.430680000000000174e-01 -1.462709000000000037e+00 -4.067100000000000160e-01 3.772599999999999842e-01 3.287499999999999867e-01 -1.276083999999999996e+00 -1.627580000000000138e-01 1.313468999999999998e+00 -4.191600000000000187e-02 -1.127699000000000007e+00 -6.375999999999999446e-01 4.204401999999999973e+00 -1.694117000000000095e+00 2.188579999999999970e+00 -1.148679999999999923e+00 9.717310000000000114e-01 1.873307000000000055e+00 2.597559999999999869e-01 4.724300000000000166e-01 -3.551470000000000127e+00 1.590810999999999975e+00 -2.317905999999999800e+00 -2.905397999999999925e+00 -9.462899999999999645e-01 -8.099800000000000055e-02 -3.355940000000000034e-01 -3.276359999999999828e-01 -7.851230000000000153e-01 5.025300000000000322e-01 -9.468429999999999902e-01 9.699389999999999956e-01 2.155215999999999799e+00 -1.002556999999999920e+00 2.074399999999999855e-02 1.756010000000000071e-01 9.584470000000000489e-01 2.188267000000000184e+00 -3.049080000000000124e-01 1.041859000000000091e+00 -2.546307999999999794e+00 -2.156979000000000202e+00 4.546089999999999853e-01 -5.392700000000000271e-01 -3.447910000000000141e-01 1.118573999999999957e+00 3.553400000000000308e-02 2.331944000000000017e+00 -6.218360000000000554e-01 -2.982679999999999776e-01 -6.148080000000000211e-01 -1.938539999999999985e-01 -4.085469999999999935e-01 -4.640290000000000248e-01 2.504399999999999959e-01 9.487010000000000165e-01 -6.098569999999999824e-01 -7.663599999999999579e-02 2.169327000000000005e+00 -9.801400000000000112e-01 4.668390000000000040e-01 1.052782000000000107e+00 -7.853719999999999590e-01 3.531700000000000117e-02 -5.520369999999999999e-01 9.716759999999999842e-01 1.209588000000000108e+00 -6.550219999999999931e-01 1.559425000000000061e+00 -1.191192999999999946e+00 -6.202440000000000175e-01 5.458469999999999711e-01 -1.031889999999999974e+00 2.217840000000000089e-01 -6.427969999999999517e-01 -2.576609999999999734e-01 7.456960000000000255e-01 -7.851799999999999891e-01 3.863309999999999800e-01 -3.478280000000000260e-01 6.409679999999999822e-01 -9.176959999999999562e-01 1.481249999999999956e+00 -1.355623000000000022e+00 1.094949999999999951e-01 -2.914979999999999793e-01 1.129016999999999937e+00 1.120506000000000002e+00 9.371819999999999595e-01 -5.033399999999999680e-02 -1.143629000000000007e+00 -1.171519999999999895e+00 1.171729000000000021e+00 -3.415929999999999800e-01 8.880670000000000508e-01 -4.569399999999999851e-02 -5.673979999999999579e-01 2.487400000000000028e-02 -1.917770000000000030e-01 -1.021698999999999913e+00 1.239422000000000024e+00 5.619400000000000089e-02 5.701720000000000121e-01 1.524349999999999872e-01 3.457529999999999770e-01 -6.942139999999999977e-01 -1.449050000000000060e-01 -1.029366000000000003e+00 -3.292919999999999736e-01 6.691049999999999498e-01 -3.528609999999999802e-01 -7.701199999999999712e-02 1.787431999999999910e+00 9.254160000000000164e-01 -2.382070000000000021e-01 -2.543773999999999980e+00 -1.524888999999999939e+00 1.326141000000000014e+00 1.896821000000000090e+00 1.454931999999999892e+00 8.129699999999999427e-02 -8.636000000000000620e-02 -1.871279999999999888e-01 6.389989999999999837e-01 -3.677010000000000001e-01 -4.932460000000000178e-01 2.059610000000000052e-01 7.816009999999999902e-01 2.958259999999999779e-01 -5.244229999999999725e-01 1.063010000000000066e-01 1.014302999999999955e+00 -1.459529999999999994e+00 -1.689861999999999975e+00 1.128317999999999932e+00 -5.804700000000000137e-02 -1.833665000000000100e+00 3.814370000000000260e-01 1.876809999999999867e-01 1.146566999999999892e+00 2.311000000000000120e-03 -3.721100000000000102e-02 -4.500400000000000234e-02 -9.054159999999999986e-01 -1.326534000000000102e+00 6.870070000000000343e-01 -1.855469999999999897e-01 -1.207640999999999964e+00 -1.022915999999999936e+00 2.133990000000000054e-01 -3.071599999999999886e-01 1.159929999999999989e-01 1.090340000000000059e-01 -3.951500000000000151e-02 -2.625330000000000163e-01 5.676330000000000542e-01 9.026039999999999619e-01 -1.426139999999999963e+00 8.431579999999999631e-01 -2.785960000000000103e-01 -9.925399999999999501e-02 1.117309999999999970e-01 -2.853859999999999730e-01 -2.445430000000000104e-01 6.199080000000000146e-01 -1.291053999999999924e+00 -3.535880000000000134e-01 -8.576679999999999859e-01 1.111388999999999960e+00 -1.135577000000000059e+00 5.217070000000000318e-01 -1.273970000000000047e+00 -1.140101000000000031e+00 2.680210000000000092e-01 -4.111670000000000047e-01 5.032680000000000486e-01 -1.390603999999999951e+00 7.886319999999999997e-01 -2.372710000000000097e-01 2.496220000000000105e-01 4.593380000000000241e-01 -3.003890000000000171e-01 -3.066240000000000077e-01 3.961779999999999746e-01 2.803350000000000009e-01 4.395290000000000030e-01 -7.931519999999999682e-01 4.813060000000000116e-01 2.725949999999999762e-01 2.239306000000000019e+00 5.016410000000000036e-01 6.981169999999999876e-01 -1.139755000000000074e+00 1.113500000000000045e-01 -1.320340000000000125e-01 -1.087150000000000061e+00 -7.914699999999999513e-02 -1.423240000000000061e-01 -2.648199999999999998e-01 -3.599399999999999822e-01 2.873430000000000151e-01 -7.737929999999999531e-01 8.423760000000000137e-01 1.130369999999999986e-01 -8.557399999999999729e-02 3.853499999999999981e-02 8.943330000000000446e-01 6.687180000000000346e-01 -2.208980000000000110e-01 -3.912430000000000074e-01 -7.956959999999999589e-01 5.579239999999999755e-01 -1.825873999999999997e+00 1.004440000000000055e-01 7.241959999999999509e-01 -5.717480000000000340e-01 3.210419999999999940e-01 -9.603599999999999637e-02 -6.437100000000000044e-01 -3.545820000000000083e-01 4.058950000000000058e-01 1.904750000000000054e-01 -8.805469999999999686e-01 -1.407249999999999890e-01 -7.136059999999999626e-01 1.189947000000000088e+00 5.715499999999999747e-02 -5.946099999999999997e-02 -1.546931000000000056e+00 2.186899999999999955e-02 1.660941999999999918e+00 7.590970000000000217e-01 6.712169999999999526e-01 7.715290000000000203e-01 1.983340000000000103e+00 -2.083460000000000034e-01 -1.220873000000000097e+00 7.878249999999999975e-01 -2.681000000000000050e-02 -1.916440000000000088e-01 -4.160559999999999814e-01 -3.667009999999999992e-01 -4.634389999999999898e-01 -3.426279999999999881e-01 3.274119999999999808e-01 -1.059419000000000111e+00 -1.133640000000000064e-01 2.344390000000000085e-01 3.561600000000000182e-02 1.294416000000000011e+00 1.127013999999999960e+00 1.424461999999999895e+00 -5.763869999999999827e-01 -3.815899999999999848e-02 2.117429000000000006e+00 9.629990000000000494e-01 -1.609339000000000075e+00 2.498399999999999926e-02 8.669080000000000119e-01 -4.184780000000000166e-01 5.682220000000000049e-01 -4.379629999999999912e-01 7.125869999999999704e-01 -3.897649999999999726e-01 8.562530000000000419e-01 -3.095169999999999866e-01 1.361841000000000079e+00 1.307666999999999913e+00 -1.383679999999999910e-01 8.984000000000000319e-02 -8.246080000000000076e-01 4.369810000000000083e-01 -9.025290000000000257e-01 -6.402640000000000553e-01 -5.494400000000000395e-01 8.989169999999999661e-01 -2.320641000000000176e+00 1.192358000000000029e+00 -1.231505999999999990e+00 7.655739999999999768e-01 7.992299999999999405e-02 8.753880000000000550e-01 1.516849999999999865e-01 -4.236969999999999903e-01 6.263440000000000119e-01 -1.845345999999999931e+00 6.687269999999999603e-01 4.023329999999999962e-01 9.669579999999999842e-01 -7.968100000000000183e-02 -6.174199999999999827e-02 -8.744159999999999711e-01 -1.523069000000000006e+00 -2.523349999999999760e-01 6.513299999999999645e-02 7.266590000000000549e-01 -3.205779999999999741e-01 8.283850000000000380e-01 2.481369999999999965e-01 -3.813920000000000088e-01 -3.523629999999999818e-01 -1.430963999999999903e+00 2.158120000000000038e-01 5.558070000000000510e-01 4.874629999999999797e-01 -2.169109000000000176e+00 3.145339999999999803e-01 2.362730000000000108e-01 6.212929999999999842e-01 -7.853189999999999893e-01 -1.674350000000000005e-01 -5.217570000000000263e-01 9.019760000000000000e-01 3.389630000000000143e-01 -5.202400000000000357e-01 -1.295641000000000043e+00 -1.314427000000000012e+00 1.734696999999999933e+00 1.067509999999999987e-01 1.101696999999999926e+00 -1.870041000000000064e+00 1.703619999999999912e+00 1.088889999999999997e-01 -4.118859999999999744e-01 7.831409999999999760e-01 5.512329999999999730e-01 -1.546799999999999953e+00 -2.876569999999999960e-01 -9.980360000000000342e-01 3.853920000000000123e-01 -2.131170000000000009e-01 7.554959999999999454e-01 -8.890499999999999792e-02 -2.053878000000000092e+00 -9.716599999999999682e-01 1.759229999999999960e-01 2.569529999999999870e-01 5.987379999999999924e-01 -3.752369999999999872e-01 -5.063000000000000139e-02 1.578130000000000088e-01 1.255702000000000096e+00 7.067339999999999733e-01 6.812540000000000262e-01 1.543161999999999923e+00 3.935629999999999962e-01 -5.641559999999999908e-01 -2.861449999999999827e-01 -4.967590000000000061e-01 -2.062630000000000019e-01 1.902510000000000034e-01 -3.046400000000000219e-01 -9.172080000000000233e-01 4.378100000000000047e-02 -1.181742000000000070e+00 -1.616354999999999986e+00 -5.127159999999999496e-01 -7.086130000000000484e-01 -2.921949999999999825e-01 4.122900000000000176e-02 2.012839999999999907e-01 -4.355859999999999732e-01 -1.017644999999999911e+00 2.199800000000000089e-01 -4.025960000000000094e-01 1.191500000000000024e-02 -3.718469999999999831e-01 1.066221000000000085e+00 1.309655999999999931e+00 3.952620000000000022e-01 3.077719999999999900e-01 2.015319999999999889e-01 -4.113310000000000022e-01 -1.126732000000000067e+00 -7.294969999999999510e-01 -3.578800000000000037e-02 -1.212534000000000001e+00 -2.894909999999999983e-01 7.341119999999999868e-01 1.579175999999999913e+00 1.653710000000000013e+00 -9.426600000000000257e-02 1.358071000000000028e+00 6.160930000000000017e-01 7.187869999999999537e-01 -1.236888999999999905e+00 -1.427542000000000089e+00 1.364549999999999930e-01 4.286719999999999975e-01 7.006909999999999528e-01 4.007260000000000266e-01 -5.816919999999999868e-01 -5.659790000000000099e-01 -5.812789999999999901e-01 1.263800999999999952e+00 -2.477880000000000082e-01 -2.044458999999999804e+00 -3.045039999999999969e-01 -6.509600000000000108e-02 3.273750000000000271e-01 1.260822000000000109e+00 9.937770000000000215e-01 7.048379999999999646e-01 -1.035171999999999981e+00 -1.793839999999999879e-01 -5.401120000000000365e-01 -3.866189999999999904e-01 -2.653700000000000156e-02 -1.129998999999999976e+00 -7.390989999999999505e-01 1.923839999999999995e-01 -2.978500000000000036e-01 -5.626370000000000537e-01 3.947080000000000033e-01 -6.220740000000000158e-01 6.414400000000000657e-02 -8.618900000000000172e-02 -3.818659999999999832e-01 -4.904249999999999998e-01 -2.305699999999999972e-01 6.712960000000000038e-01 -4.242409999999999792e-01 8.936429999999999652e-01 6.806399999999999950e-02 1.572210000000000107e+00 -6.633980000000000432e-01 -9.296759999999999469e-01 -1.443475000000000064e+00 3.153759999999999897e-01 5.864610000000000101e-01 1.299134999999999929e+00 1.631809999999999927e-01 1.140431999999999890e+00 6.653040000000000065e-01 -9.045860000000000012e-01 -4.881360000000000143e-01 3.223899999999999683e-02 7.597749999999999782e-01 7.063350000000000461e-01 -1.481609999999999872e-01 -3.701340000000000185e-01 -2.049700000000000133e-02 -1.655305999999999944e+00 -1.535040000000000016e-01 -1.458892000000000078e+00 1.004162999999999917e+00 3.412939999999999863e-01 -9.215299999999999880e-02 -1.470920000000000005e-01 -1.269379999999999953e-01 2.734599999999999878e-02 6.118080000000000185e-01 9.164480000000000404e-01 -5.022800000000000181e-02 -1.029358999999999913e+00 1.476542999999999939e+00 1.991090000000000082e-01 1.176415999999999906e+00 6.819920000000000426e-01 6.373370000000000424e-01 -6.782869999999999733e-01 -4.778029999999999777e-01 3.541270000000000251e-01 5.397509999999999808e-01 8.692849999999999744e-01 -2.048766000000000087e+00 1.840470999999999968e+00 -1.033085000000000031e+00 1.447143999999999986e+00 -1.163904000000000050e+00 -1.327175999999999911e+00 9.496580000000000021e-01 -2.437000000000000000e-01 -8.883640000000000425e-01 -3.135009999999999741e-01 -1.981209999999999916e-01 2.989089999999999803e-01 6.453950000000000520e-01 7.280200000000000560e-02 -5.978569999999999718e-01 1.083924000000000110e+00 6.448990000000000000e-01 3.923200000000000021e-01 3.840740000000000265e-01 4.888390000000000235e-01 5.951650000000000551e-01 8.634359999999999813e-01 -9.520599999999999896e-02 1.991570000000000007e-01 9.844899999999999485e-02 9.032109999999999861e-01 -9.437360000000000193e-01 -1.888319999999999999e-01 1.967659999999999965e-01 -8.667600000000000304e-02 1.267215999999999898e+00 3.522480000000000055e-01 7.683809999999999807e-01 -5.040270000000000028e-01 2.595640000000000169e-01 -2.089970000000000105e+00 -2.055240000000000122e-01 -8.375169999999999559e-01 4.133419999999999872e-01 2.850050000000000083e-01 -3.693520000000000136e-01 -6.684729999999999839e-01 -1.604399999999999993e-01 1.284669999999999979e+00 7.524999999999999745e-02 -1.194220000000000059e+00 3.097650000000000126e-01 1.164360000000000062e+00 -1.194345999999999908e+00 7.220889999999999809e-01 -1.033128999999999964e+00 -7.754500000000000282e-02 -5.476630000000000109e-01 4.515649999999999942e-01 1.482501000000000069e+00 8.833619999999999806e-01 -5.107770000000000366e-01 4.535219999999999807e-01 4.022189999999999932e-01 -2.042400000000000049e-01 2.912000000000000005e-02 -8.817000000000000393e-01 8.165200000000000236e-02 6.263360000000000039e-01 -9.961919999999999664e-01 -1.120057999999999998e+00 -7.001699999999999591e-01 -1.705730000000000024e-01 -1.141410999999999953e+00 3.290013000000000076e+00 -5.070869999999999544e-01 -7.134610000000000118e-01 2.360269000000000172e+00 -4.737310000000000132e-01 -1.011900000000000022e+00 6.309120000000000283e-01 1.454129999999999867e-01 1.015697999999999990e+00 1.258556999999999926e+00 1.629768000000000105e+00 5.928510000000000169e-01 1.100030000000000063e+00 9.914199999999999402e-02 9.324299999999999811e-01 1.141186000000000034e+00 2.168259999999999910e-01 -1.434706000000000037e+00 -1.757209999999999883e-01 -2.317299999999999915e-02 -1.284478000000000009e+00 1.786999000000000004e+00 2.246420000000000083e-01 -1.186760000000000037e-01 6.632710000000000550e-01 -7.150149999999999562e-01 1.054227000000000025e+00 -1.125379999999999991e-01 -9.629000000000000059e-02 -7.521700000000000608e-02 -1.578932000000000002e+00 -2.746109999999999940e-01 2.213519999999999932e-01 6.815639999999999477e-01 -1.515295999999999976e+00 -3.659209999999999963e-01 6.591390000000000304e-01 -7.168199999999999572e-02 -1.200500000000000005e-02 -8.429320000000000146e-01 5.364700000000000024e-02 2.406669999999999920e-01 -7.253950000000000120e-01 7.557150000000000256e-01 -8.392340000000000355e-01 2.254760000000000097e-01 -1.735884999999999900e+00 -3.319429999999999881e-01 -3.809900000000000092e-02 1.745099999999999985e-01 -2.213630000000000042e-01 -1.902290000000000092e-01 3.145470000000000210e-01 -5.152200000000000113e-01 4.427670000000000217e-01 6.464609999999999523e-01 -4.056310000000000193e-01 -1.896898999999999891e+00 7.536600000000000243e-02 -7.125000000000000222e-01 5.726569999999999716e-01 -6.453430000000000000e-01 1.014399999999999968e+00 -1.244742999999999933e+00 1.088139999999999941e-01 1.9388030000000000