7.361769999999999925e+00 6.053020000000000067e+00 1.146879999999999988e+01 1.596129999999999960e+01 6.405369999999999564e+00 6.214500000000000135e+00 1.455039999999999978e+01 1.511149999999999949e+01 5.995930000000000426e+00 6.252399999999999736e+00 1.266319999999999890e+00 2.007969999999999899e+01 6.228299999999999947e+00 2.415509999999999824e+00 6.075190000000000090e+00 6.457950000000000301e+00 6.692849999999999966e+00 2.192589999999999861e+01 6.929619999999999891e+00 1.503430000000000000e+01 1.236480000000000068e+01 1.506520000000000081e+01 1.522150000000000070e+01 1.564500000000000002e+00 4.044430000000000192e+00 1.729189999999999827e+01 1.274169999999999980e+01 1.148060000000000080e+01 1.863110000000000044e+00 3.537799999999999834e-01 6.505379999999999718e+00 1.488090000000000046e+01 8.603270000000000195e+00 2.052070000000000061e+00 1.152069999999999972e+01 1.815900000000000070e+00 1.511909999999999954e+01 1.518890000000000029e+01 9.387629999999999697e+00 2.673960000000000115e+00 2.167479999999999851e+00 2.279990000000000094e+01 1.148530000000000051e+01 1.154349999999999987e+01 5.150129999999999875e+00 1.558549999999999969e+01 2.263419999999999987e+00 2.488919999999999888e+01 1.480710000000000015e+01 1.075919999999999987e+01 7.097509999999999764e+00 1.993849999999999900e+00 1.097789999999999999e+01 1.931859999999999999e+01 6.804249999999999687e+00 6.776779999999999582e+00 5.544799999999999729e-01 2.345509999999999984e+00 2.214480000000000004e+00 1.434329999999999927e+01 1.269089999999999918e+01 8.670489999999999142e+00 7.180150000000000254e+00 1.561299999999999955e+01 1.092830000000000013e+01 1.737389999999999901e+01 6.529889999999999972e+00 2.179759999999999920e+00 2.881419999999999870e+00 1.494640000000000057e+01 1.067789999999999928e+01 1.248060000000000080e+01 2.533170000000000144e+00 6.794640000000000235e+00 3.056599999999999873e-01 1.366849999999999987e+01 9.049039999999999750e+00 1.978170000000000073e+01 2.313950000000000173e+00 6.348709999999999631e+00 1.448070000000000057e+01 1.258500000000000085e+01 1.655399999999999849e+01 1.301179999999999914e+01 6.721269999999999634e+00 1.535549999999999926e+01 2.502499999999999947e+00 8.057930000000000703e+00 1.730359999999999943e+01 2.219679999999999964e+01 2.119250000000000078e+00 2.449510000000000076e+00 3.737929999999999975e+00 1.109820000000000029e+01 1.069170000000000087e+01 1.653099999999999881e+01 1.015070000000000050e+01 1.541709999999999958e+01 8.139179999999999637e+00 1.518590000000000018e+01 1.782710000000000017e+00 2.167320000000000135e+01 2.250379999999999825e+00 1.126360000000000028e+01 9.631389999999999674e+00 1.713650000000000162e+01 1.391399999999999970e+01 1.826729999999999876e+01 8.960269999999999513e+00 1.710279999999999845e+01 2.634469999999999867e+00 1.492500000000000071e+01 1.148020000000000040e+00 1.872360000000000113e+01 1.556809999999999938e+01 1.088530000000000086e+01 2.276920000000000144e+01 1.304110000000000014e+01 8.592650000000000787e+00 7.925200000000000022e-01 1.984180000000000055e+00 6.489760000000000417e+00 2.168260000000000076e+01 1.682109999999999994e+00 7.199320000000000164e+00 3.433780000000000054e+00 3.843770000000000131e+00 1.355550000000000033e+01 2.497469999999999857e+00 6.355290000000000106e+00 1.109619999999999962e+01 1.176190000000000069e+01 6.350310000000000343e+00 1.107520000000000060e+01 8.538600000000000634e+00 2.993399999999999950e-01 4.906520000000000437e+00 2.451330000000000098e+01 9.934929999999999595e+00 1.056450000000000067e+01 1.229279999999999973e+01 7.153629999999999711e+00 1.743579999999999908e+00 1.587909999999999933e+01 2.301969999999999850e+00 6.458420000000000272e+00 5.854610000000000092e+00 6.182760000000000034e+00 1.130450000000000088e+01 2.518299999999999983e+00 2.421539999999999804e+00 1.659659999999999869e+01 2.232760000000000034e+01 1.466760000000000019e+01 1.508150000000000013e+01 1.562320000000000064e+01 2.237830000000000208e+00 1.137420000000000009e+01 5.740899999999999892e+00 1.083890000000000065e+01 5.984659999999999869e+00 1.843220000000000169e+01 1.081939999999999991e+01 1.527779999999999916e+01 1.821539999999999893e+01 1.075730000000000075e+01 1.833569999999999922e+00 1.354229999999999912e+01 5.068679999999999630e+00 3.578059999999999796e+00 9.696559999999999846e+00 6.296619999999999884e+00 6.466199999999999726e+00 1.512930000000000064e+01 4.371839999999999726e+00 9.093479999999999563e+00 6.026000000000000245e-01 4.567580000000000418e+00 8.112730000000000885e+00 1.969200000000000017e+01 7.076819999999999666e+00 1.532360000000000078e+01 2.506869999999999976e+01 1.333660000000000068e+01 4.457830000000000403e+00 1.545550000000000068e+01 1.150639999999999930e+01 1.085249999999999915e+01 2.414930000000000021e+00 1.744129999999999825e+01 1.301420000000000066e+01 1.213969999999999949e+01 1.996690000000000076e+00 6.251759999999999984e+00 1.837269999999999825e+01 5.220089999999999897e+00 3.516129999999999978e+00 2.235559999999999903e+01 1.871890000000000054e+00 1.058549999999999969e+01 1.329330000000000034e+01 6.952890000000000015e+00 1.061829999999999963e+01 2.511299999999999955e+01 1.526280000000000037e+01 6.445710000000000051e+00 1.885889999999999844e+01 1.083309999999999995e+01 1.303320000000000034e+00 2.137709999999999866e+01 8.879099999999999326e+00 9.011449999999999960e+00 9.767770000000000508e+00 1.082850000000000001e+01 6.846930000000000405e+00 2.203119999999999834e+01 1.119289999999999985e+01 1.058399999999999963e+01 2.255389999999999873e+01 6.653450000000000308e+00 6.255370000000000097e+00 1.829749999999999943e+01 7.013200000000000545e-01 1.894589999999999996e+00 2.033160000000000167e+01 6.237049999999999983e+00 1.137529999999999930e+01 1.510810000000000031e+01 1.065259999999999962e+01 6.696970000000000312e+00 3.291679999999999939e+00 6.521169999999999689e+00 6.583109999999999573e+00 8.466419999999999391e+00 9.354850000000000776e+00 1.289419999999999966e+01 2.442719999999999914e+01 6.787899999999999601e+00 1.522669999999999968e+00 1.331760000000000055e+01 3.798340000000000050e+00 8.473860000000000170e+00 7.261759999999999771e+00 1.371049999999999969e+01 1.614219999999999899e+01 1.998479999999999990e+01 8.269050000000000011e+00 1.715579999999999927e+01 9.150090000000000501e+00 1.517290000000000028e+01 1.669410000000000061e+00 1.618789999999999907e+01 1.499290000000000056e+01 6.302310000000000301e+00 9.770799999999999486e+00 1.389170000000000016e+01 1.282440000000000069e+01 2.209629999999999939e+01 4.929999999999999660e-02 1.404739999999999966e+01 6.489080000000000403e+00 6.646370000000000111e+00 1.751300000000000079e+00 1.036330000000000062e+01 1.484999999999999964e+01 1.590999999999999970e+00 6.584329999999999572e+00 6.636239999999999917e+00 2.658279999999999976e+00 2.476429999999999865e+01 8.809279999999999333e+00 8.990479999999999805e+00 2.838579999999999881e+00 8.270060000000000855e+00 8.806580000000000297e+00 1.577500000000000036e+01 1.302089999999999925e+01 1.703989999999999938e+01 1.474699999999999900e-01 4.262199999999999878e-01 2.110400000000000054e-01 3.016030000000000211e+00 1.747640000000000171e+01 6.951500000000000457e-01 1.570669999999999966e+01 3.688860000000000028e+00 8.284879999999999356e+00 1.331460000000000043e+01 6.936530000000000307e+00 8.032629999999999271e+00 4.241740000000000066e+00 1.254470000000000063e+01 7.844000000000000306e+00 1.306259999999999977e+01 8.769769999999999399e+00 4.595609999999999751e+00 2.491540000000000177e+01 8.773960000000000647e+00 1.338969999999999949e+01 4.856749999999999901e+00 1.536050000000000004e+01 2.274540000000000006e+00 3.180569999999999897e+00 1.038480000000000025e+01 7.087860000000000049e+00 8.911039999999999850e+00 1.109590000000000032e+01 1.512139999999999951e+01 2.339689999999999870e+01 1.526720000000000077e+01 5.925279999999999880e+00 1.579920000000000080e+01 1.061749999999999972e+01 2.266500000000000181e+00 5.638259999999999827e+00 8.248200000000000642e+00 3.830799999999999983e+00 1.839959999999999951e+01 2.659909999999999997e+00 2.390439999999999898e+00 1.836399999999999977e-01 6.401550000000000296e+00 1.539669999999999916e+01 1.659140000000000015e+01 1.562289999999999957e+01 6.574900000000000411e+00 1.250099999999999945e+01 1.534340000000000082e+01 6.466770000000000351e+00 2.220080000000000098e+01 1.707420000000000115e+01 1.730699999999999861e+01 9.969829999999999970e+00 1.298470000000000013e+01 1.275440000000000040e+01 9.385229999999999961e+00 4.332320000000000171e+00 1.717820000000000036e+01 6.798899999999999944e-01 2.096210000000000129e+00 1.458999999999999986e+01 1.461400000000000077e+01 3.456469999999999931e+00 1.309950000000000081e+01 2.188370000000000104e+01 1.450909999999999922e+00 1.065370000000000061e+01 1.647370000000000090e+01 1.738479999999999848e+01 9.887389999999999901e+00 3.397489999999999899e+00 1.083500000000000085e+01 1.079359999999999964e+01 9.356289999999999552e+00 1.951959999999999917e+00 1.165219999999999922e+00 8.896240000000000592e+00 1.103359999999999985e+01 2.210679999999999978e+00 1.106879999999999953e+01 4.776790000000000092e+00 4.442059999999999675e+00 3.252629999999999910e+00 1.032119999999999926e+01 1.570459999999999967e+00 1.681060000000000088e+01 1.497010000000000041e+01 1.460379999999999967e+01 1.227870000000000061e+01 4.484639999999999738e+00 1.293190000000000062e+01 1.589320000000000022e+01 3.917000000000000343e-02 7.677629999999999733e+00 1.510079999999999956e+01 1.717729999999999890e+01 3.883900000000000130e+00 1.807620000000000005e+01 1.545669999999999966e+01 1.045369999999999955e+01 9.611349999999999838e+00 1.543549999999999933e+01 1.600700000000000145e+01 2.222100000000000009e+01 1.063679999999999914e+01 6.328079999999999927e+00 1.587049999999999983e+01 6.598449999999999704e+00 1.125760000000000005e+01 2.150979999999999848e+01 1.023709999999999987e+01 1.476549999999999940e+01 1.129349999999999987e+01 6.499109999999999943e+00 1.092689999999999984e+01 1.852969999999999828e+01 5.384900000000000242e-01 8.732730000000000103e+00 2.207379999999999853e+01 2.720660000000000078e+00 1.092319999999999958e+01 2.234100000000000108e+01 9.991999999999999493e-02 4.345650000000000013e+00 5.833120000000000083e+00 2.408189999999999831e+00 1.556179999999999986e+01 1.367599999999999927e-01 2.313610000000000166e+00 5.535429999999999851e+00 9.530730000000000146e+00 2.041700000000000070e+00 2.094160000000000021e+00 1.793619999999999948e+01 6.557120000000000282e+00 1.121899999999999942e+01 5.841940000000000133e+00 1.535040000000000049e+01 1.072669999999999924e+01 1.674779999999999935e+00 2.895179999999999865e+00 1.531990000000000052e+01 1.951960000000000051e+01 1.529860000000000042e+01 6.049019999999999619e+00 1.766110000000000069e+00 1.057920000000000016e+01 1.543849999999999945e+01 1.475590000000000046e+01 4.555390000000000050e+00 3.666589999999999794e+00 1.572560000000000002e+01 8.613129999999999953e+00 5.205400000000000027e+00 5.782289999999999708e+00 6.500399999999999956e+00 1.459520000000000017e+01 2.092460000000000164e+01 1.466360000000000063e+01 1.095599999999999952e+01 1.514729999999999954e+01 9.097020000000000550e+00 1.287780000000000058e+01 1.798829999999999885e+01 2.381790000000000074e+00 1.445490000000000030e+01 9.909129999999999328e+00 1.288170000000000037e+01 4.272059999999999746e+00 3.506759999999999877e+00 6.733099999999999641e-01 8.846780000000000754e+00 9.757149999999999324e+00 1.096240000000000059e+01 1.097269999999999968e+01 1.981850000000000023e+01 1.696730000000000160e+01 3.495289999999999786e+00 1.184689999999999976e+01 1.273639999999999972e+01 4.583319999999999617e+00 2.224040000000000106e+01 2.156750000000000167e+00 1.549039999999999928e+01 5.730730000000000324e+00 1.208089999999999975e+01 1.490659999999999918e+01 2.672120000000000051e+00 1.474670000000000059e+01 1.591599999999999904e+00 1.005439999999999934e+01 3.353040000000000020e+00 2.198030000000000150e+00 6.837620000000000253e+00 6.855269999999999975e+00 1.552820000000000000e+01 5.213140000000000107e+00 1.737419999999999831e+01 1.326750000000000007e+01 2.473519999999999897e+01 4.227789999999999715e+00 8.568419999999999703e+00 2.264740000000000109e+01 4.629229999999999734e+00 2.022899999999999976e-01 2.244849999999999923e+01 1.297359999999999935e+01 8.378529999999999589e+00 1.013209999999999944e+01 1.268490000000000073e+01 1.705549999999999855e+01 1.016799999999999926e+01 1.310350000000000037e+01 1.748620000000000019e+01 2.272439999999999927e+01 8.752169999999999561e+00 1.315210000000000079e+01 2.323409999999999975e+00 7.369999999999999815e-03 4.551190000000000069e+00 2.368590000000000195e+00 1.714460000000000051e+01 3.984929999999999861e+00 1.507399999999999984e+01 1.699149999999999849e+01 4.472830000000000084e+00 2.104860000000000042e+01 1.734799999999999898e+01 1.339400000000000013e+01 9.237399999999999167e+00 8.862049999999999983e+00 1.303459999999999930e+01 8.782209999999999184e+00 9.499579999999999913e+00 1.326430000000000042e+01 2.098479999999999990e+01 4.612960000000000171e+00 2.600999999999999840e-02 3.596229999999999816e+00 4.120320000000000427e+00 9.210110000000000241e+00 3.700130000000000141e+00 4.233030000000000292e+00 8.809599999999999653e+00 1.643199999999999861e+01 1.325719999999999921e+01 8.446310000000000429e+00 1.653249999999999886e+01 4.178060000000000329e+00 8.452939999999999898e+00 1.025489999999999924e+01 4.296090000000000408e+00 1.721399999999999864e+01 1.012800000000000011e+01 1.323339999999999961e+01 8.568669999999999121e+00 2.323379999999999868e+01 8.981419999999999959e+00 4.357300000000000395e+00 2.640309999999999935e+00 8.498200000000000642e+00 4.331229999999999691e+00 1.545059999999999967e+01 8.471460000000000434e+00 1.289310000000000045e+01 1.460289999999999999e+01 6.819999999999999674e-03 1.321770000000000067e+01 2.476389999999999869e+00 1.733439999999999870e+01 1.285609999999999964e+01 1.492839999999999989e+01 1.739839999999999876e+01 4.223729999999999762e+00 8.640430000000000277e+00 1.734659999999999869e+01 1.312020000000000053e+01 2.137709999999999866e+01 8.805030000000000356e+00 4.171669999999999767e+00 8.597670000000000812e+00 8.366410000000000124e+00 3.879960000000000075e+00 2.127570000000000050e+01 4.248689999999999856e+00 1.746450000000000102e+01 1.625159999999999982e+01 1.334350000000000058e+01 2.959899999999999753e-01 3.677669999999999995e+00 1.278270000000000017e+01 1.653000000000000025e-01 1.645570000000000022e+01 1.339129999999999932e+01 8.601000000000000867e+00 4.029919999999999725e+00 4.416610000000000369e+00 4.191060000000000230e+00 1.240530000000000044e+01 4.881879999999999775e+00 4.759170000000000122e+00 1.074299999999999977e-01 4.431639999999999802e+00 1.333000000000000007e+01 1.257249999999999979e+01 4.590580000000000105e+00 1.322359999999999935e+01 2.501119999999999877e+01 1.287190000000000012e+01 4.385659999999999670e+00 1.214329999999999998e+01 1.309399999999999942e+01 4.440640000000000143e+00 2.519920000000000115e+01 1.290119999999999933e+01 1.253710000000000058e+01 1.252399999999999913e+01 1.342849999999999966e+01 1.289789999999999992e+01 2.524010000000000176e+01 8.833370000000000388e+00 8.885279999999999845e+00 6.339409999999999989e+00 8.982939999999999259e+00 8.645490000000000563e+00 1.876129999999999853e+01 8.652269999999999683e+00 1.732469999999999999e+01 6.060710000000000264e+00 8.671530000000000626e+00 1.680150000000000077e+01 1.887199999999999989e+01 4.211999999999999772e-02 8.732549999999999812e+00 6.479860000000000397e+00 4.567999999999999838e-02 8.454620000000000246e+00 1.879690000000000083e+01 1.363900000000000112e-01 1.535199999999999898e-01 5.968079999999999607e+00 1.726810000000000045e+01 1.705300000000000082e+01 1.872929999999999851e+01 2.223799999999999943e-01 6.420720000000000205e+00 9.602199999999999624e-01 7.531000000000000194e-02 5.708280000000000243e+00 1.345870000000000033e+01 1.243200000000000000e-01 1.479379999999999917e+01 1.164020000000000055e+00 1.737750000000000128e+01 1.459379999999999988e+01 1.371599999999999930e+01 8.944440000000000168e+00 6.171800000000000175e+00 1.581409999999999982e+00 8.402110000000000412e+00 6.093020000000000103e+00 1.434329999999999927e+01 8.866460000000000008e+00 1.507109999999999950e+01 8.734499999999999487e-01 8.812170000000000059e+00 1.440750000000000064e+01 1.340840000000000032e+01 1.725179999999999936e+01 2.497869999999999813e+00 9.648559999999999803e+00 1.711309999999999931e+01 2.467169999999999863e+00 2.241400000000000148e+01 2.133400000000000019e-01 1.133380000000000010e+01 1.047920000000000051e+01 2.846099999999999741e-01 1.148569999999999958e+01 2.258180000000000121e+01 8.717299999999999827e+00 2.256969999999999921e+00 9.597569999999999268e+00 8.492369999999999308e+00 2.151679999999999815e+00 2.232580000000000098e+01 8.732100000000000861e+00 1.125469999999999970e+01 1.025719999999999921e+01 9.150019999999999598e+00 1.130320000000000036e+01 2.202899999999999991e+01 3.252700000000000036e-01 7.097550000000000026e+00 5.102479999999999905e+00 1.709949999999999903e+01 6.778690000000000104e+00 1.761439999999999984e+01 1.719330000000000069e+01 1.599840000000000018e+01 4.923149999999999693e+00 1.737040000000000006e+01 1.586669999999999980e+01 1.707270000000000110e+01 8.870449999999999946e+00 7.270660000000000345e+00 4.865009999999999835e+00 7.187000000000000277e+00 8.302910000000000679e+00 1.964049999999999940e+01 8.945259999999999323e+00 1.558810000000000073e+01 4.547460000000000058e+00 8.731260000000000687e+00 1.530829999999999913e+01 1.754820000000000135e+01 1.728269999999999840e+01 2.551400000000000112e+00 1.363550000000000040e+00 1.698179999999999978e+01 2.037929999999999797e+00 1.370250000000000057e+01 5.025000000000000300e-02 1.137599999999999945e+01 1.368789999999999951e+00 1.750059999999999860e+01 1.107520000000000060e+01 1.392639999999999922e+01 9.344219999999999970e+00 2.824619999999999909e+00 1.377089999999999925e+00 8.633839999999999293e+00 2.736470000000000180e+00 1.378069999999999951e+01 8.816359999999999530e+00 1.123610000000000042e+01 1.253540000000000099e+00 8.310480000000000089e+00 1.112219999999999942e+01 1.393120000000000047e+01 1.675389999999999935e+00 8.752919999999999590e+00 7.871380000000000265e+00 1.707109999999999905e+00 8.190970000000000084e+00 1.998280000000000101e+01 2.226440000000000197e+00 4.710000000000000298e-02 7.035870000000000068e+00 1.518469999999999986e+00 1.714170000000000016e+01 1.963569999999999993e+01 1.038049999999999962e+01 9.034499999999999531e+00 7.582559999999999967e+00 1.034950000000000081e+01 8.511829999999999785e+00 2.008180000000000121e+01 1.026600000000000001e+01 1.733350000000000080e+01 7.262039999999999829e+00 1.040959999999999930e+01 1.661439999999999984e+01 1.991280000000000072e+01 1.928239999999999954e+00 4.684840000000000337e+00 3.743209999999999926e+00 1.649410000000000043e+00 3.994749999999999801e+00 1.602819999999999823e+01 1.722010000000000041e+00 1.330530000000000079e+01 3.596769999999999801e+00 1.430069999999999952e+00 1.276229999999999976e+01 1.614590000000000103e+01 1.046540000000000070e+01 4.362919999999999909e+00 4.104989999999999917e+00 9.956789999999999807e+00 4.065299999999999692e+00 1.677870000000000061e+01 1.070870000000000033e+01 1.272259999999999991e+01 3.500980000000000203e+00 1.014509999999999934e+01 1.276989999999999981e+01 1.577909999999999968e+01 1.993279999999999941e+00 4.125569999999999737e+00 7.935060000000000002e+00 1.394309999999999938e+00 4.381840000000000401e+00 1.996910000000000096e+01 1.739460000000000006e+00 1.317370000000000019e+01 8.047280000000000655e+00 1.361070000000000002e+00 1.296649999999999991e+01 2.005720000000000169e+01 1.033939999999999948e+01 4.517559999999999576e+00 7.438170000000000393e+00 1.000980000000000025e+01 4.070520000000000138e+00 1.981569999999999965e+01 1.063470000000000049e+01 1.309570000000000078e+01 7.771609999999999907e+00 1.114310000000000045e+01 1.333890000000000065e+01 1.972560000000000002e+01 2.377609999999999779e+00 8.900650000000000617e+00 1.132520000000000060e+01 2.292250000000000121e+00 8.605549999999999145e+00 2.385040000000000049e+01 2.467820000000000125e+00 1.734390000000000143e+01 1.123910000000000053e+01 2.716200000000000170e+00 5.170200000000000351e-01 2.408780000000000143e+01 1.116990000000000016e+01 9.120939999999999159e+00 1.103170000000000073e+01 1.136040000000000028e+01 8.051859999999999573e+00 2.394269999999999854e+01 1.115779999999999994e+01 1.715490000000000137e+01 1.162650000000000006e+01 1.090900000000000070e+01 3.119999999999999857e-02 2.381909999999999883e+01 2.739189999999999792e+00 1.608400000000000107e-01 2.226160000000000139e+00 2.678220000000000045e+00 1.733609999999999829e+01 1.504770000000000074e+01 2.377609999999999779e+00 9.008419999999999206e+00 2.403249999999999886e+00 2.417739999999999778e+00 8.421789999999999665e+00 1.530139999999999922e+01 1.165199999999999925e+01 1.744699999999999918e+01 2.396150000000000002e+00 1.098939999999999984e+01 1.202300000000000035e-01 1.523770000000000024e+01 1.186669999999999980e+01 8.585639999999999716e+00 2.769340000000000135e+00 1.140279999999999916e+01 8.646860000000000213e+00 1.527769999999999939e+01 3.097640000000000171e+00 3.978829999999999867e+00 1.094860000000000078e+01 3.189779999999999838e+00 4.442040000000000433e+00 2.423379999999999868e+01 2.721709999999999852e+00 1.293389999999999951e+01 1.175980000000000025e+01 2.781829999999999803e+00 1.328710000000000058e+01 2.407079999999999842e+01 1.086159999999999926e+01 4.735389999999999766e+00 1.177139999999999986e+01 1.138369999999999926e+01 4.003980000000000317e+00 2.419389999999999930e+01 1.142280000000000051e+01 1.229219999999999935e+01 1.122949999999999982e+01 1.180219999999999914e+01 1.270759999999999934e+01 2.387780000000000058e+01 4.475990000000000357e+00 7.149589999999999890e+00 4.907700000000000173e+00 4.266670000000000407e+00 6.777099999999999902e+00 1.756660000000000110e+01 4.281659999999999577e+00 1.553870000000000040e+01 4.203280000000000349e+00 4.218810000000000393e+00 1.598750000000000071e+01 1.755260000000000176e+01 1.297220000000000084e+01 7.062059999999999782e+00 5.195730000000000182e+00 1.314460000000000051e+01 6.379620000000000068e+00 1.759560000000000102e+01 1.276200000000000045e+01 1.685429999999999851e+01 5.228519999999999612e+00 1.302360000000000007e+01 1.627749999999999986e+01 1.786840000000000117e+01 4.971470000000000056e+00 3.052509999999999835e+00 1.297449999999999992e+00 4.319390000000000285e+00 2.384749999999999925e+00 1.357799999999999940e+01 4.319440000000000168e+00 1.174290000000000056e+01 1.093839999999999923e+00 4.312610000000000277e+00 1.169369999999999976e+01 1.388749999999999929e+01 1.377660000000000018e+01 2.777070000000000149e+00 9.989000000000000101e-01 1.314320000000000022e+01 2.553580000000000183e+00 1.323310000000000031e+01 1.323409999999999975e+01 1.142989999999999995e+01 1.327669999999999906e+00 1.279739999999999966e+01 1.093420000000000059e+01 1.368909999999999982e+01 4.231849999999999667e+00 6.734790000000000276e+00 8.934079999999999799e+00 4.158220000000000027e+00 6.512929999999999886e+00 2.177159999999999940e+01 4.053659999999999819e+00 1.553940000000000055e+01 9.134119999999999351e+00 4.269560000000000244e+00 1.569400000000000084e+01 2.146829999999999927e+01 1.284099999999999930e+01 6.517249999999999766e+00 8.899729999999999919e+00 1.317939999999999934e+01 6.880180000000000184e+00 2.150390000000000157e+01 1.228180000000000049e+01 1.531099999999999994e+01 8.883549999999999613e+00 1.312940000000000040e+01 1.521679999999999922e+01 2.195889999999999986e+01 4.663359999999999950e+00 6.451399999999999579e+00 1.340430000000000010e+00 4.488570000000000171e+00 5.864289999999999559e+00 1.365809999999999924e+01 4.667769999999999975e+00 1.499230000000000018e+01 6.670599999999999863e-01 4.884210000000000385e+00 1.508750000000000036e+01 1.380550000000000033e+01 1.258779999999999966e+01 5.957840000000000025e+00 1.109040000000000026e+00 1.334270000000000067e+01 5.887279999999999625e+00 1.359900000000000020e+01 1.305850000000000044e+01 1.479850000000000065e+01 6.610700000000000465e-01 1.278400000000000070e+01 1.439460000000000051e+01 1.340990000000000038e+01 4.603769999999999918e+00 2.104140000000000121e+00 4.695739999999999803e+00 4.230269999999999975e+00 1.812659999999999938e+00 1.731090000000000018e+01 4.404869999999999841e+00 1.106020000000000003e+01 4.836299999999999599e+00 4.060159999999999769e+00 1.061159999999999926e+01 1.784779999999999944e+01 1.340939999999999976e+01 2.138770000000000060e+00 4.508160000000000167e+00 1.298739999999999917e+01 2.057739999999999903e+00 1.738599999999999923e+01 1.361340000000000039e+01 1.040549999999999997e+01 5.002169999999999561e+00 1.338380000000000081e+01 1.008239999999999981e+01 1.799990000000000023e+01 4.822359999999999758e+00 1.248680000000000012e+00 8.920249999999999346e+00 4.250119999999999898e+00 1.710090000000000110e+00 2.098839999999999861e+01 4.279740000000000322e+00 1.010319999999999929e+01 8.914960000000000662e+00 4.318010000000000126e+00 1.037749999999999950e+01 2.120670000000000144e+01 1.250830000000000020e+01 1.511719999999999953e+00 9.105079999999999174e+00 1.304599999999999937e+01 1.363250000000000073e+00 2.091629999999999967e+01 1.328340000000000032e+01 1.029470000000000063e+01 8.774259999999999948e+00 1.340639999999999965e+01 1.029690000000000083e+01 2.145400000000000063e+01 6.157519999999999882e+00 3.753680000000000128e+00 1.157939999999999969e+01 6.562369999999999592e+00 4.738019999999999676e+00 2.417079999999999984e+01 6.003389999999999560e+00 1.317399999999999949e+01 1.119459999999999944e+01 6.082819999999999894e+00 1.284299999999999997e+01 2.380809999999999960e+01 1.441200000000000081e+01 4.245239999999999903e+00 1.057280000000000086e+01 1.449690000000000012e+01 4.771279999999999966e+00 2.388410000000000011e+01 1.489000000000000057e+01 1.244480000000000075e+01 1.121030000000000015e+01 1.511020000000000074e+01 1.258489999999999931e+01 2.431609999999999872e+01 6.380729999999999791e+00 1.386900000000000077e-01 2.401180000000000092e+00 6.201600000000000001e+00 1.714999999999999858e+01 1.540980000000000061e+01 6.349310000000000009e+00 9.268580000000000041e+00 2.397159999999999958e+00 5.883790000000000298e+00 8.935739999999999128e+00 1.497489999999999988e+01 1.489230000000000054e+01 1.738190000000000168e+01 2.444350000000000023e+00 1.422589999999999932e+01 1.745579999999999998e+01 1.504840000000000089e+01 1.541419999999999924e+01 8.574389999999999290e+00 2.855119999999999880e+00 1.494539999999999935e+01 8.481450000000000600e+00 1.513180000000000014e+01 5.877760000000000318e+00 8.386810000000000542e+00 1.141960000000000086e+01 6.017280000000000406e+00 8.694300000000000139e+00 2.390360000000000085e+01 5.999649999999999928e+00 1.713710000000000022e+01 1.143670000000000009e+01 6.103399999999999714e+00 4.689300000000000135e-01 2.403259999999999863e+01 1.493900000000000006e+01 8.297840000000000771e+00 1.153299999999999947e+01 1.504599999999999937e+01 8.896150000000000446e+00 2.413119999999999976e+01 1.469280000000000008e+01 1.671209999999999951e+01 1.117660000000000053e+01 1.491300000000000026e+01 1.008499999999999952e-01 2.427309999999999945e+01 7.355839999999999712e+00 4.468140000000000001e+00 3.951670000000000016e+00 6.618339999999999890e+00 4.235140000000000349e+00 1.643479999999999919e+01 6.830490000000000173e+00 1.318229999999999968e+01 3.526539999999999786e+00 6.835410000000000430e+00 1.325839999999999996e+01 1.621839999999999904e+01 1.585060000000000002e+01 4.745510000000000339e+00 3.669960000000000111e+00 1.549310000000000009e+01 3.735250000000000181e+00 1.670629999999999882e+01 1.593060000000000009e+01 1.295950000000000024e+01 3.662409999999999943e+00 1.562729999999999997e+01 1.306370000000000076e+01 1.642399999999999949e+01 7.270880000000000010e+00 8.970670000000000144e+00 7.752110000000000056e+00 8.963160000000000238e+00 1.040440000000000076e+01 1.792569999999999908e+01 7.045110000000000205e+00 1.692200000000000060e+01 7.281340000000000146e+00 6.829780000000000406e+00 1.660950000000000060e+01 1.989709999999999823e+01 1.564889999999999937e+01 8.388339999999999463e+00 7.358349999999999724e+00 1.597300000000000075e+01 8.139430000000000831e+00 2.033889999999999887e+01 1.615289999999999893e+01 1.734829999999999828e+01 7.511219999999999786e+00 1.584479999999999933e+01 1.709019999999999939e+01 2.017360000000000042e+01 6.621699999999999697e+00 3.836629999999999985e+00 7.720650000000000013e+00 6.640670000000000073e+00 4.283409999999999940e+00 2.021089999999999876e+01 7.171339999999999826e+00 1.286739999999999995e+01 7.350240000000000329e+00 7.412749999999999950e+00 1.285389999999999944e+01 1.984509999999999863e+01 1.573649999999999949e+01 4.227920000000000122e+00 7.540189999999999948e+00 1.502169999999999916e+01 4.404939999999999856e+00 2.006149999999999878e+01 1.563990000000000080e+01 1.329260000000000019e+01 7.827250000000000263e+00 1.547990000000000066e+01 1.314160000000000039e+01 2.048999999999999844e+01 8.321189999999999642e+00 1.504720000000000057e+00 4.975080000000000169e+00 8.718349999999999156e+00 1.108039999999999914e+00 1.810300000000000153e+01 8.741400000000000503e+00 1.068950000000000067e+01 5.099840000000000373e+00 8.831440000000000623e+00 7.138370000000000104e+00 1.737229999999999919e+01 2.060000000000000199e-03 1.841280000000000028e+00 4.713379999999999903e+00 1.710180000000000078e+01 1.490390000000000104e+00 1.807689999999999841e+01 1.723430000000000106e+01 1.050619999999999976e+01 5.714640000000000164e+00 4.739000000000000157e-02 1.029129999999999967e+01 1.807280000000000086e+01 8.575390000000000512e+00 5.840410000000000323e+00 9.694699999999999207e+00 8.871430000000000149e+00 5.462410000000000210e+00 2.252740000000000009e+01 8.391320000000000334e+00 1.475029999999999930e+01 9.943070000000000519e+00 8.780250000000000554e+00 1.485599999999999987e+01 2.279319999999999879e+01 5.752000000000000168e-02 5.855349999999999611e+00 9.596790000000000376e+00 1.746270000000000167e+01 6.219940000000000246e+00 2.256749999999999901e+01 1.714669999999999916e+01 1.527860000000000085e+01 1.026210000000000022e+01 4.313699999999999757e-01 1.483880000000000088e+01 2.234759999999999991e+01