-8.054000000000000048e-01 -3.812599999999999878e-01 1.022939000000000043e+00 -9.065600000000000325e-01 -3.036200000000000010e-01 -9.597700000000000675e-02 4.777200000000000196e-02 5.868529999999999580e-01 6.597400000000000486e-02 4.801190000000000180e-01 5.237030000000000296e-01 -6.165699999999999514e-01 1.202048000000000005e+00 -5.109690000000000065e-01 3.310199999999999948e-02 7.395929999999999449e-01 -6.473600000000000187e-02 9.239600000000000590e-02 -6.711629999999999541e-01 -7.229000000000000183e-03 -3.327490000000000170e-01 7.112260000000000248e-01 -8.475800000000000001e-02 1.888519999999999921e-01 2.491359999999999963e-01 -3.592100000000000154e-02 1.171426000000000078e+00 1.752060000000000006e-01 4.490100000000000341e-02 -4.533399999999999930e-02 -5.376339999999999453e-01 -1.564530000000000087e-01 -1.948469999999999924e-01 1.511360000000000037e+00 -2.618449999999999944e-01 4.010000000000000231e-01 -9.916239999999999499e-01 3.424699999999999966e-02 -4.337929999999999842e-01 -5.617760000000000531e-01 1.179351999999999956e+00 -8.018899999999999917e-01 -2.684400000000000119e-01 -4.580529999999999879e-01 9.002620000000000067e-01 -6.758000000000000118e-03 4.100289999999999768e-01 -7.387499999999999623e-02 4.195070000000000188e-01 -1.356209999999999916e-01 -6.324950000000000294e-01 4.998159999999999825e-01 -9.757000000000000117e-01 -6.112599999999999978e-02 1.898420000000000107e-01 4.298569999999999891e-01 -1.332280000000000131e-01 -1.307336000000000054e+00 -1.570819999999999994e-01 3.228480000000000238e-01 2.333179999999999976e-01 -4.553849999999999842e-01 -5.105790000000000051e-01 -9.687280000000000335e-01 -1.302500000000000047e-01 5.061080000000000023e-01 5.457530000000000436e-01 1.344429000000000096e+00 6.786799999999999500e-01 1.616839999999999944e-01 -1.117237999999999953e+00 2.277770000000000072e-01 -3.767849999999999810e-01 1.808399999999999938e-02 -2.449270000000000058e-01 4.415390000000000148e-01 -1.807482000000000033e+00 5.466550000000000020e-01 -1.757630000000000026e-01 -1.276988999999999930e+00 3.680800000000000044e-02 1.260297000000000001e+00 6.942390000000000505e-01 7.146200000000000330e-01 -1.610400000000000026e-02 -3.165839999999999765e-01 -5.453000000000000208e-02 8.478299999999999725e-02 -6.638020000000000032e-01 -1.128220000000000056e-01 4.928429999999999755e-01 -5.677699999999999969e-01 -1.815049999999999997e-01 -2.539900000000000144e-02 -1.825569999999999971e-01 -4.323199999999999960e-02 9.667399999999999605e-02 -9.530039999999999623e-01 2.785969999999999835e-01 -3.705959999999999810e-01 9.494199999999999862e-02 3.350000000000000113e-04 7.653100000000000458e-01 1.274609999999999910e-01 -2.875579999999999803e-01 4.396200000000000108e-02 -4.888330000000000175e-01 2.227369999999999906e-01 3.532150000000000012e-01 -1.447299999999999975e-02 1.999839999999999951e-01 -1.070559000000000038e+00 3.205089999999999884e-01 5.448340000000000405e-01 -5.259369999999999878e-01 -5.983610000000000317e-01 -2.175179999999999891e-01 3.734649999999999914e-01 -2.188130000000000075e-01 -3.373490000000000100e-01 -3.530380000000000185e-01 -3.799339999999999939e-01 -1.328590000000000049e-01 3.594860000000000277e-01 -8.914560000000000262e-01 -7.972179999999999822e-01 2.248560000000000003e-01 4.881630000000000136e-01 4.608619999999999939e-01 3.516940000000000066e-01 -7.552919999999999634e-01 3.201339999999999741e-01 4.420669999999999877e-01 7.131500000000000339e-02 4.937489999999999934e-01 -2.190320000000000045e-01 -1.441949999999999898e-01 -8.950500000000000123e-02 2.995490000000000097e-01 6.727680000000000327e-01 3.277499999999999858e-02 1.453119999999999967e-01 -3.270900000000000196e-02 6.006110000000000060e-01 6.915229999999999988e-01 -5.477410000000000334e-01 3.887909999999999977e-01 -3.295399999999999718e-02 1.256918999999999897e+00 2.793199999999999850e-02 -1.448681000000000108e+00 -5.584249999999999492e-01 -1.608449999999999880e-01 -2.063439999999999996e-01 3.493290000000000006e-01 8.691599999999999326e-02 -5.143290000000000362e-01 1.509550000000000058e-01 7.845100000000000684e-02 -1.107839999999999936e-01 2.274430000000000063e-01 5.607339999999999547e-01 7.166970000000000285e-01 -4.001669999999999949e-01 -6.552999999999999797e-03 7.033190000000000275e-01 4.956300000000000289e-02 2.503630000000000022e-01 -4.366249999999999853e-01 2.128410000000000024e-01 -8.238419999999999632e-01 -3.707779999999999965e-01 4.185500000000000331e-02 2.611319999999999752e-01 1.127159999999999968e-01 1.944800000000000001e-02 -2.341739999999999933e-01 -1.394559999999999966e-01 2.586700000000000110e-02 -2.385059999999999958e-01 -8.088100000000000289e-01 3.642900000000000305e-02 -1.015621000000000107e+00 -3.653540000000000121e-01 -7.622719999999999496e-01 6.065799999999999664e-02 -1.030929999999999902e+00 1.041809999999999958e-01 1.027999999999999921e-02 1.127350000000000019e-01 -4.399959999999999982e-01 -5.556600000000000428e-01 2.555500000000000133e-02 -2.051479999999999970e-01 -4.892099999999999921e-02 2.957100000000000006e-02 3.718190000000000106e-01 -2.629279999999999951e-01 2.393781999999999854e+00 -2.988800000000000137e-02 -7.253110000000000390e-01 -9.665600000000000580e-02 1.844020000000000103e-01 -9.615500000000000436e-02 -7.282980000000000009e-01 -1.686860000000000026e-01 4.421070000000000277e-01 -6.520209999999999617e-01 -1.096700000000000036e-01 6.276700000000000335e-02 -1.871879999999999933e-01 1.282949999999999924e-01 -4.562140000000000084e-01 -1.187209999999999932e-01 -1.558160000000000101e-01 -4.451069999999999749e-01 5.341700000000000337e-01 -9.795800000000000340e-02 5.682859999999999578e-01 -6.568200000000000427e-02 2.761879999999999891e-01 1.130950000000000011e-01 -3.677000000000000147e-03 1.580300000000000107e-02 4.714240000000000097e-01 1.010709999999999942e-01 -7.316190000000000193e-01 -2.130309999999999981e-01 3.872369999999999979e-01 -4.873259999999999814e-01 1.533700000000000063e-01 2.207349999999999868e-01 -1.359549999999999925e-01 -2.402410000000000101e-01 -3.721599999999999908e-02 4.327000000000000290e-02 -1.049469999999999986e-01 -9.625639999999999752e-01 -1.920840000000000047e-01 -3.349670000000000147e-01 8.428120000000000056e-01 -2.090329999999999966e-01 -5.712509999999999533e-01 -2.127999999999999892e-01 2.097090000000000065e-01 2.384130000000000138e-01 5.936040000000000205e-01 2.103450000000000042e-01 1.339619999999999977e-01 -3.580820000000000114e-01 -9.858599999999999308e-02 -5.161010000000000320e-01 2.919610000000000261e-01 1.810470000000000135e-01 -3.030909999999999993e-01 -7.891479999999999606e-01 5.611300000000000315e-02 5.298519999999999897e-01 -3.521699999999999831e-01 -2.656760000000000232e-01 -2.495209999999999928e-01 -2.474109999999999920e-01 -1.223820000000000047e-01 4.562599999999999989e-02 -4.296849999999999836e-01 1.265090000000000103e-01 4.260000000000000006e-04 2.551970000000000072e-01 -1.140787999999999913e+00 5.299779999999999491e-01 8.028599999999999626e-02 5.165840000000000432e-01 1.448520000000000085e-01 1.024609999999999965e-01 1.665580000000000116e-01 5.147600000000000092e-02 -3.199389999999999734e-01 4.142330000000000179e-01 3.675800000000000178e-01 -1.601170000000000093e-01 -2.120839999999999947e-01 -3.316799999999999748e-01 4.895579999999999932e-01 -3.685249999999999915e-01 -2.508409999999999807e-01 7.599740000000000384e-01 9.396200000000000385e-02 -2.704940000000000122e-01 -1.410730999999999957e+00 -2.487790000000000001e-01 1.105170000000000041e-01 -3.341129999999999933e-01 9.412979999999999681e-01 4.163200000000000234e-02 1.009452000000000016e+00 -9.098999999999999450e-03 1.296869999999999967e-01 1.808629999999999960e-01 -5.522390000000000354e-01 1.290637000000000034e+00 2.739389999999999881e-01 3.040709999999999802e-01 -4.156690000000000107e-01 8.712309999999999777e-01 -6.361679999999999557e-01 -8.711099999999999399e-02 5.936400000000000010e-02 1.307580000000000131e-01 -6.566999999999999921e-03 -2.888760000000000217e-01 8.874549999999999939e-01 7.458900000000000252e-02 -1.683300000000000074e-02 -1.105580000000000035e-01 6.058000000000000190e-02 -2.569469999999999810e-01 -3.087340000000000084e-01 1.976100000000000079e-02 -7.580000000000000626e-02 -9.462399999999999978e-02 6.379979999999999540e-01 1.679209999999999869e-01 -2.581510000000000193e-01 8.971320000000000405e-01 -1.736880000000000090e-01 -1.292855000000000087e+00 7.177559999999999496e-01 -7.741559999999999553e-01 1.182629999999999931e-01 9.084100000000000508e-02 -1.732889999999999986e-01 1.513360000000000039e+00 -4.819249999999999923e-01 -1.371539999999999981e-01 3.217789999999999817e-01 -4.800900000000000306e-02 4.793330000000000091e-01 1.236893999999999938e+00 -5.924890000000000434e-01 6.286699999999999511e-01 5.028540000000000232e-01 -7.382199999999999873e-02 2.913850000000000051e-01 7.922289999999999610e-01 -2.364479999999999915e-01 9.595089999999999453e-01 -1.179832999999999910e+00 -7.185660000000000380e-01 -5.275900000000000034e-02 -2.740099999999999827e-02 6.842800000000000271e-02 3.991850000000000120e-01 2.102799999999999947e-01 -3.993120000000000003e-01 -1.369670000000000054e-01 6.523480000000000389e-01 1.043309000000000042e+00 1.489989999999999926e-01 1.571579999999999921e-01 -8.848629999999999551e-01 -1.499000000000000055e-01 2.838769999999999905e-01 1.576029999999999931e-01 7.174570000000000114e-01 5.838950000000000529e-01 -1.581919999999999993e-01 9.415999999999999370e-02 2.581169999999999853e-01 -9.704100000000000226e-02 -1.605590000000000073e-01 3.197240000000000082e-01 2.151700000000000140e-02 -3.919369999999999798e-01 -2.224399999999999988e-02 3.327080000000000037e-01 7.569789999999999575e-01 7.166040000000000187e-01 7.746499999999999497e-01 1.968959999999999877e-01 -1.359489999999999865e-01 4.504159999999999831e-01 4.368739999999999846e-01 -5.632719999999999949e-01 7.102850000000000552e-01 9.504200000000000148e-02 5.300850000000000284e-01 -4.561379999999999879e-01 4.710480000000000222e-01 -8.954299999999999760e-02 1.404660000000000075e-01 7.035280000000000422e-01 -5.737799999999999845e-02 5.076300000000000257e-02 1.785889999999999977e-01 -3.812900000000000317e-02 8.414900000000000158e-02 -4.266199999999999992e-01 -1.743089999999999917e-01 2.087900000000000172e-02 -1.953435999999999950e+00 -6.930200000000000249e-02 1.785495999999999972e+00 2.095740000000000103e-01 -3.210259999999999780e-01 -5.775719999999999743e-01 -4.388239999999999919e-01 9.795999999999999153e-03 -2.966099999999999987e-02 2.711609999999999854e-01 8.242300000000000182e-01 4.786989999999999856e-01 -3.458599999999999869e-02 1.429999999999999882e-01 -1.916299999999999948e-01 2.120829999999999937e-01 -6.580400000000000138e-02 -2.807560000000000056e-01 -8.618399999999999672e-02 -1.148499999999999938e-01 1.936730000000000118e-01 -7.327000000000000179e-03 3.796100000000000169e-02 -1.893060000000000020e-01 -4.504020000000000246e-01 6.886929999999999996e-01 -1.414219999999999922e-01 -3.109219999999999762e-01 -8.822980000000000267e-01 1.848029999999999951e-01 -6.773329999999999629e-01 -2.450880000000000003e-01 -4.860059999999999936e-01 1.766459999999999975e-01 -5.762469999999999537e-01 1.323249999999999982e-01 1.643380000000000118e-01 2.455130000000000090e-01 4.526259999999999728e-01 -2.484830000000000094e-01 -3.279399999999999676e-02 -4.010500000000000176e-02 -3.013089999999999935e-01 3.737969999999999904e-01 1.519320000000000115e-01 -5.350449999999999928e-01 3.709099999999999897e-02 6.188630000000000519e-01 1.074940000000000062e-01 1.093549999999999939e-01 -7.265819999999999501e-01 -8.037950000000000372e-01 -2.653300000000000103e-02 5.490340000000000220e-01 -3.400000000000000244e-04 -4.325609999999999733e-01 5.717499999999999666e-02 -1.706270000000000009e-01 2.565709999999999935e-01 -1.093729999999999980e-01 1.608499999999999930e-01 -1.889500000000000068e-01 7.986300000000000343e-02 5.355360000000000120e-01 2.109070000000000111e-01 -3.413590000000000235e-01 -6.796699999999999964e-01 9.680400000000000116e-02 6.482240000000000224e-01 -3.156240000000000157e-01 5.091499999999999915e-01 1.063680000000000042e-01 -9.375799999999999412e-02 -1.770899999999999974e-01 -1.702730000000000077e-01 -1.156632000000000104e+00 -4.110420000000000185e-01 3.941399999999999904e-01 2.304309999999999969e-01 -1.186239999999999933e-01 -2.523960000000000092e-01 -5.648130000000000095e-01 -1.233869999999999967e-01 7.756950000000000234e-01 -1.005609999999999976e-01 -6.661869999999999736e-01 1.477033000000000040e+00 1.490715000000000012e+00 -3.144589999999999885e-01 -8.755709999999999882e-01 7.129680000000000462e-01 5.940769999999999662e-01 -2.050250000000000128e+00 -9.843009999999999815e-01 -7.041220000000000256e-01 7.600550000000000361e-01 3.973389999999999977e-01 3.553379999999999872e-01 -9.016349999999999643e-01 1.785149000000000097e+00 1.547580000000000067e-01 -7.549709999999999477e-01 6.352210000000000356e-01 -1.114376999999999951e+00 -1.447294000000000080e+00 -3.106499999999999886e-02 -4.671020000000000172e-01 2.005996000000000112e+00 5.746050000000000324e-01 -1.680487999999999982e+00 -6.454659999999999842e-01 -1.658789999999999987e+00 -1.937780999999999976e+00 3.222599999999999909e-01 -3.453411000000000008e+00 1.362889999999999935e-01 2.251011000000000095e+00 -1.879483000000000015e+00 1.186901999999999902e+00 2.745600000000000124e-02 1.676998999999999906e+00 -1.491077999999999903e+00 5.832810000000000494e-01 8.379250000000000309e-01 -5.594339999999999868e-01 1.668266999999999944e+00 -7.536859999999999671e-01 -1.172975000000000101e+00 1.633219999999999950e-01 7.362159999999999815e-01 3.399969999999999937e-01 -1.127947000000000033e+00 -6.918419999999999570e-01 -3.010900000000000035e-02 1.151192999999999911e+00 -9.168000000000000801e-03 -7.032890000000000530e-01 -3.553999000000000130e+00 2.214369999999999949e-01 2.713800000000000101e-01 7.859669999999999712e-01 -1.324969999999999981e+00 -4.174399999999999777e-01 -2.869879000000000069e+00 3.654589999999999783e-01 1.767206000000000055e+00 3.612013000000000140e+00 1.204319999999999974e-01 -6.906120000000000037e-01 1.546909999999999952e-01 -4.949290000000000078e-01 9.169819999999999638e-01 9.289389999999999592e-01 1.135586999999999902e+00 -1.947804000000000091e+00 -1.141734000000000027e+00 -1.918999999999999916e-03 5.946599999999999664e-01 7.250250000000000306e-01 -2.349679000000000073e+00 -2.915745999999999949e+00 2.435289999999999955e-01 2.308762999999999899e+00 1.277344000000000035e+00 -9.411450000000000093e-01 1.285743000000000080e+00 1.092181999999999986e+00 9.638970000000000038e-01 -1.573555999999999955e+00 -5.414700000000000069e-02 -2.099699000000000204e+00 -3.037619999999999765e-01 1.229975999999999958e+00 -4.470239999999999769e-01 2.800107999999999819e+00 6.580869999999999775e-01 2.578179999999999916e-01 -4.139530000000000154e-01 -1.296092999999999940e+00 1.225322000000000022e+00 -9.854579999999999451e-01 -6.325389999999999624e-01 7.083899999999999919e-02 2.474568999999999797e+00 7.412790000000000212e-01 1.288782000000000094e+00 -1.486218999999999957e+00 -7.814969999999999972e-01 3.348999999999999980e-03 4.519999999999999712e-03 -1.037938999999999945e+00 4.409239999999999826e-01 -9.666810000000000125e-01 -1.011405000000000109e+00 1.759098000000000050e+00 8.146339999999999693e-01 5.682270000000000376e-01 -1.163747000000000087e+00 -3.216880000000000184e+00 -1.887860000000000094e-01 4.708339999999999748e-01 -8.365939999999999488e-01 1.527767000000000097e+00 -1.221292999999999962e+00 -1.924832000000000098e+00 -1.569663999999999948e+00 3.210740000000000260e-01 5.804150000000000142e-01 -1.318516999999999939e+00 -1.877500000000000002e-01 8.770899999999999530e-02 -8.840780000000000305e-01 1.468755999999999950e+00 -4.368179999999999841e-01 -1.331639999999999935e+00 1.190946000000000060e+00 -2.075741999999999976e+00 -2.395640999999999909e+00 2.923875999999999920e+00 3.477600000000000136e-01 2.006670000000000120e-01 2.128033999999999981e+00 6.481240000000000334e-01 -3.784179999999999766e-01 -1.686999999999999889e-01 -2.049499999999999933e-01 -9.541309999999999514e-01 6.980929999999999636e-01 -4.820429999999999993e-01 -1.513899999999999968e-01 1.048483000000000054e+00 -6.069280000000000230e-01 2.846790000000000154e-01 -4.037500000000000117e-02 -6.581460000000000088e-01 -7.586810000000000498e-01 1.103523000000000032e+00 1.210149999999999976e-01 -9.154700000000000337e-02 -2.450839999999999963e-01 8.847859999999999614e-01 -4.366320000000000201e-01 5.271699999999999997e-02 5.983899999999999775e-01 -1.223746000000000000e+00 1.725594999999999990e+00 2.433150000000000035e-01 1.197360999999999898e+00 -5.662239999999999496e-01 3.397140000000000160e-01 -1.349866000000000010e+00 1.145996999999999932e+00 1.173160999999999898e+00 1.307017000000000095e+00 -4.235240000000000116e-01 -1.327946999999999989e+00 6.150539999999999896e-01 -5.185049999999999937e-01 -3.007170000000000121e-01 -2.989899999999999780e-01 2.910220000000000029e-01 1.172589000000000103e+00 1.266977000000000020e+00 5.646700000000000330e-02 -2.262730000000000019e-01 5.911030000000000451e-01 -2.571039999999999992e-01 -1.059344999999999981e+00 6.738900000000000445e-02 -3.377700000000000147e-02 2.233549999999999980e-01 1.010560000000000069e-01 3.485710000000000197e-01 -6.906590000000000229e-01 1.024756999999999918e+00 1.316400999999999932e+00 1.297924999999999995e+00 6.481019999999999559e-01 -8.771099999999999453e-01 8.652739999999999876e-01 -6.571179999999999799e-01 -6.537230000000000540e-01 -5.721680000000000099e-01 6.584090000000000220e-01 4.360840000000000272e-01 3.137590000000000101e-01 1.441828000000000110e+00 1.487049999999999983e+00 -1.585331999999999963e+00 3.674990000000000201e-01 9.232900000000000551e-01 1.324089999999999989e-01 2.169274999999999842e+00 6.527730000000000476e-01 -5.197330000000000005e-01 -2.114900000000000113e-02 -1.204067999999999916e+00 9.868500000000000050e-01 4.051569999999999894e-01 -2.623240000000000016e-01 4.292219999999999924e-01 8.345759999999999845e-01 1.376304999999999890e+00 -9.770649999999999613e-01 6.882519999999999749e-01 -5.122079999999999966e-01 -3.192388999999999921e+00 5.757120000000000015e-01 5.662199999999999456e-01 -1.311965999999999966e+00 4.565299999999999914e-02 -4.650900000000000173e-02 -2.267649999999999944e-01 8.963050000000000184e-01 2.070981999999999879e+00 -1.042750000000000066e-01 -4.440890000000000115e-01 -1.036508999999999903e+00 -1.162412999999999919e+00 -3.023134000000000210e+00 -1.553091999999999917e+00 -1.193537000000000070e+00 3.167899999999999883e-02 -1.903523999999999994e+00 5.021219999999999573e-01 5.338100000000000067e-01 -8.610710000000000308e-01 -1.933024999999999993e+00 -3.606360000000000121e-01 -1.724639999999999951e+00 1.271393999999999913e+00 4.757899999999999907e-01 8.003219999999999779e-01 9.230159999999999476e-01 -2.544460000000000055e-01 2.617240000000000122e-01 2.479023000000000199e+00 -4.885800000000000143e-01 1.276326999999999989e+00 -1.215279999999999971e-01 1.584816999999999920e+00 -6.604980000000000295e-01 -8.019370000000000109e-01 9.014569999999999528e-01 1.184754000000000085e+00 -3.252289999999999903e-01 3.261729999999999907e-01 -3.281089999999999840e-01 -7.271500000000000186e-02 -1.588100000000000067e-01 4.993040000000000256e-01 3.250959999999999961e-01 -4.563999999999999724e-01 3.010439999999999783e-01 7.719599999999999795e-01 1.703322000000000003e+00 3.793409999999999838e-01 2.361560000000000048e-01 2.948620000000000130e-01 -4.007669999999999844e-01 7.119020000000000348e-01 -8.268100000000000449e-02 -5.514970000000000150e-01 -4.323500000000000121e-01 1.884263999999999939e+00 -6.362240000000000117e-01 6.361719999999999597e-01 8.009720000000000173e-01 2.808970000000000078e-01 -1.039619999999999989e+00 -8.374449999999999950e-01 -1.774537999999999949e+00 4.397159999999999958e-01 -6.463740000000000041e-01 -8.876319999999999766e-01 8.692800000000000527e-02 2.660899999999999932e-01 -8.086680000000000534e-01 1.255007999999999901e+00 7.741860000000000408e-01 -1.611674999999999969e+00 2.155789999999999929e-01 -2.743499999999999828e-01 -4.859559999999999991e-01 -4.864640000000000075e-01 -5.148779999999999468e-01 1.450477999999999934e+00 2.110538000000000025e+00 -7.411489999999999467e-01 -1.561868999999999952e+00 1.349788999999999906e+00 -3.669490000000000252e-01 -1.248326000000000047e+00 9.906430000000000513e-01 -8.427810000000000024e-01 1.160039999999999960e-01 4.897259999999999946e-01 6.177629999999999511e-01 -3.001329999999999831e-01 4.953580000000000205e-01 5.070930000000000160e-01 -1.180474999999999941e+00 3.590110000000000245e-01 -1.696941999999999950e+00 1.672000000000000092e-03 -9.239800000000000235e-01 -1.558872000000000035e+00 6.178000000000000158e-01 1.227595999999999909e+00 1.611612999999999962e+00 8.332460000000000422e-01 -3.020633999999999819e+00 4.588200000000000056e-01 9.288570000000000437e-01 1.941862999999999895e+00 3.363079999999999958e-01 -3.378530000000000144e-01 -5.919800000000000062e-02 8.138819999999999943e-01 2.144520000000000037e-01 -1.217905000000000015e+00 2.092400000000000093e-01 -1.008990999999999971e+00 3.017440000000000122e-01 8.632600000000000273e-01 -5.297340000000000382e-01 -1.623410999999999937e+00 1.114689999999999959e+00 -8.392119999999999580e-01 3.976759999999999740e-01 2.956820000000000004e-01 -6.165720000000000089e-01 8.503969999999999585e-01 -2.955570000000000142e-01 7.924999999999999822e-01 -1.407858000000000054e+00 7.765250000000000208e-01 -1.292942000000000036e+00 1.904000000000000137e-02 -1.901909999999999989e-01 -2.216000000000000088e-03 -1.076084999999999958e+00 6.700000000000000226e-04 2.982040000000000246e-01 2.525540000000000007e-01 2.232200000000000156e-02 3.077429999999999888e-01 -2.764206000000000163e+00 2.260459999999999969e-01 -1.501749999999999918e+00 -2.644290000000000251e-01 1.105800000000000012e-02 -1.587320000000000120e-01 1.570607000000000086e+00 -6.182260000000000533e-01 -2.603559999999999763e-01 -2.469719999999999971e-01 -3.373039999999999927e-01 -5.165689999999999449e-01 -7.747709999999999875e-01 1.187793000000000099e+00 -1.692099999999999993e-01 5.077800000000000091e-01 -2.885170000000000234e-01 3.576449999999999907e-01 -3.300600000000000200e-01 1.483379999999999921e+00 -1.332450000000000023e-01 4.615560000000000218e-01 5.769239999999999924e-01 -8.935600000000000487e-02 4.985049999999999759e-01 -1.217872000000000066e+00 1.623378999999999905e+00 3.574700000000000100e-02 -1.579644999999999966e+00 7.785400000000000098e-01 4.608510000000000106e-01 -7.616420000000000412e-01 6.179400000000000448e-01 -5.569299999999999945e-02 4.109149999999999747e-01 -8.327080000000000037e-01 3.816439999999999833e-01 -2.891122000000000192e+00 2.316975999999999924e+00 -1.082729999999999942e-01 -1.047442999999999902e+00 -9.657040000000000068e-01 -2.332789999999999864e-01 3.285299999999999887e-01 -6.781979999999999675e-01 7.975640000000000507e-01 9.803490000000000260e-01 1.503379999999999994e-01 3.783009999999999984e-01 -1.804399999999999893e-01 -2.380339999999999956e-01 3.307240000000000180e-01 -4.090280000000000027e-01 1.030250000000000055e-01 -1.095647000000000038e+00 7.491569999999999618e-01 -3.962749999999999884e-01 -5.285159999999999858e-01 1.094119000000000064e+00 -5.055079999999999574e-01 7.497080000000000410e-01 5.303660000000000041e-01 -9.046359999999999957e-01 7.031610000000000360e-01 -2.147880000000000067e-01 7.984930000000000083e-01 -2.117590000000000028e-01 1.049552999999999958e+00 9.925869999999999971e-01 1.111021000000000036e+00 8.101660000000000528e-01 -8.687279999999999447e-01 1.444004000000000065e+00 -3.819989999999999775e-01 -1.273884000000000016e+00 3.640880000000000227e-01 -3.287729999999999819e-01 2.973350000000000160e-01 -4.514949999999999797e-01 1.673828000000000094e+00 3.033159999999999745e-01 6.141200000000000131e-02 1.561536999999999953e+00 8.006299999999999528e-01 1.225884999999999891e+00 -2.892520000000000091e-01 5.240899999999999448e-01 2.267780000000000074e-01 1.506416999999999895e+00 4.306309999999999860e-01 8.146299999999999375e-02 -1.156179999999999986e+00 -5.888609999999999678e-01 -3.778150000000000119e-01 -4.921920000000000184e-01 -4.153270000000000017e-01 7.884109999999999729e-01 -4.855119999999999991e-01 4.809700000000000086e-01 -1.036235000000000017e+00 -1.972992000000000079e+00 -9.304289999999999505e-01 1.001738000000000017e+00 1.990590000000000137e-01 6.002119999999999678e-01 8.097119999999999873e-01 -8.822950000000000514e-01 6.452099999999999502e-02 2.507380000000000164e-01 -1.001365000000000061e+00 -2.399129999999999874e-01 7.295460000000000278e-01 -8.338090000000000224e-01 8.054470000000000240e-01 -1.110916999999999932e+00 -5.014480000000000048e-01 -4.791270000000000251e-01 5.471000000000000307e-01 -6.746429999999999927e-01 -4.964839999999999809e-01 -3.607739999999999836e-01 -7.102899999999999492e-02 2.033979999999999955e-01 2.119800000000000156e-02 -2.403929999999999956e-01 -9.905479999999999841e-01 3.316959999999999908e-01 1.433075000000000099e+00 4.953779999999999850e-01 -4.166610000000000036e-01 -1.067784000000000066e+00 -5.072919999999999652e-01 -7.277320000000000455e-01 2.210769999999999957e-01 4.107000000000000407e-03 -3.069089999999999874e-01 1.440261999999999931e+00 -1.556094000000000088e+00 -4.510879999999999890e-01 6.676860000000000017e-01 -4.196050000000000058e-01 -6.391980000000000439e-01 1.005435000000000079e+00 4.308000000000000024e-02 -5.179000000000000270e-02 -2.639850000000000252e-01 7.992780000000000440e-01 1.102432000000000079e+00 -5.156439999999999912e-01 -8.108349999999999724e-01 7.604319999999999968e-01 -3.638029999999999875e-01 3.214230000000000143e-01 5.186070000000000402e-01 -3.436699999999999755e-01 5.779619999999999758e-01 -1.652939999999999965e-01 -7.641599999999999782e-02 3.181039999999999979e-01 -7.617270000000000429e-01 2.784200000000000008e-01 2.509166000000000007e+00 2.642082999999999959e+00 9.992680000000000451e-01 -1.263180000000000136e-01 -1.003046000000000104e+00 1.395334999999999992e+00 1.495950000000000057e-01 -1.069992000000000054e+00 4.616859999999999853e-01 6.104190000000000449e-01 1.099189999999999889e+00 -3.693400000000000155e-02 -3.601809999999999734e-01 -8.419619999999999882e-01 -1.295159999999999922e-01 1.970900000000000096e+00 1.836028999999999911e+00 9.063200000000000423e-02 -7.188290000000000513e-01 -1.288286000000000042e+00 1.011269999999999891e+00 1.083928000000000003e+00 1.457819999999999894e+00 3.364489999999999981e-01 -9.338170000000000082e-01 7.541740000000000110e-01 -1.032556000000000029e+00 -1.438943000000000083e+00 -8.733809999999999629e-01 1.916697000000000095e+00 -9.689720000000000555e-01 -1.161966000000000054e+00 -1.942844000000000015e+00 -5.087599999999999761e-02 1.243200000000000034e-02 -2.807160000000000211e-01 3.211709999999999843e-01 7.258679999999999577e-01 3.600729999999999764e-01 2.540399999999999880e-01 4.663820000000000188e-01 -5.487379999999999480e-01 -5.686679999999999513e-01 -2.133011999999999908e+00 -5.023530000000000495e-01 2.371119999999999894e-01 7.887349999999999639e-01 3.030749999999999833e-01 -9.224699999999999567e-02 -4.757149999999999990e-01 2.512630000000000141e-01 -4.136499999999999899e-02 4.990490000000000204e-01 -4.359899999999999887e-02 3.585690000000000266e-01 2.788959999999999773e-01 5.755959999999999965e-01 -5.278399999999999759e-01 5.944580000000000419e-01 -8.078079999999999705e-01 -2.126810000000000089e-01 -1.120586000000000082e+00 1.700296000000000030e+00 -1.660682999999999909e+00 -1.452115000000000045e+00 -7.504929999999999657e-01 2.898040000000000060e-01 -4.315100000000000185e-02 8.487850000000000117e-01 9.700400000000000689e-02 -7.102619999999999489e-01 -4.059769999999999768e-01 -1.856328999999999896e+00 -6.784689999999999888e-01 -6.556049999999999933e-01 -9.309030000000000360e-01 1.540283000000000069e+00 -1.824350000000000138e-01 2.069419999999999871e-01 5.241339999999999888e-01 5.206210000000000004e-01 5.803599999999999731e-02 1.081493999999999955e+00 -1.443886000000000003e+00 -1.137083999999999984e+00 -1.123550000000000049e+00 9.135899999999999577e-02 1.081892000000000076e+00 1.979889999999999983e-01 2.083797999999999817e+00 -1.747130000000000072e+00 -4.943429999999999769e-01 6.471989999999999688e-01 -1.318700000000000080e-02 6.371329999999999494e-01 -1.008380000000000054e+00 -1.635437999999999947e+00 -2.715969999999999773e-01 -8.988030000000000186e-01 -1.002315999999999985e+00 1.821129999999999971e-01 1.432439999999999936e+00 -1.625070000000000014e+00 -9.356250000000000400e-01 -1.681200000000000055e-02 -1.187770999999999910e+00 9.249290000000000012e-01 3.562259999999999871e-01 4.004200000000000120e-02 1.266497999999999902e+00 -5.507800000000000196e-02 5.814179999999999904e-01 8.366719999999999713e-01 1.226081999999999894e+00 -1.676603000000000065e+00 5.378610000000000335e-01 7.606000000000000538e-01 -3.960790000000000144e-01 -4.697640000000000149e-01 -4.179149999999999809e-01 -1.495889999999999997e-01 1.237837000000000076e+00 1.815447000000000033e+00 5.266060000000000185e-01 -9.435200000000000531e-02 -3.944480000000000208e-01 3.876359999999999806e-01 -7.238179999999999614e-01 6.291489999999999583e-01 -1.339609999999999967e-01 -2.010059999999999902e-01 1.519659999999999900e-01 -2.140090000000000048e-01 -1.683959999999999901e-01 2.316489999999999938e-01 -1.517568999999999946e+00 6.732979999999999521e-01 -2.304479999999999862e-01 7.543199999999999905e-02 -5.377790000000000070e-01 -2.290419999999999956e-01 -3.777249999999999774e-01 1.512418999999999958e+00 -5.419399999999999912e-02 -3.538740000000000219e-01 4.047780000000000267e-01 -7.118499999999999828e-02 1.950719999999999954e-01 -1.511322999999999972e+00 1.884041000000000077e+00 -3.733890000000000264e-01 3.512390000000000234e-01 -2.320612999999999815e+00 4.816840000000000011e-01 5.135440000000000005e-01 -3.974500000000000255e-01 -3.289460000000000162e-01 -1.955780000000000018e-01 -7.111800000000000344e-01 1.201456000000000079e+00 -2.787379999999999858e-01 2.948410000000000197e-01 -1.428012999999999977e+00 8.068969999999999754e-01 1.491856000000000071e+00 -9.857139999999999791e-01 1.405700000000000005e-01 5.855150000000000077e-01 6.926999999999999824e-02 -1.6570299999999