2.070579999999999921e-01 2.336299999999999835e-02 -2.793899999999999856e-02 -1.114198999999999939e+00 -2.208459999999999868e-01 4.239099999999999813e-02 7.759800000000000031e-02 2.149909999999999877e-01 2.177610000000000101e-01 -2.128800000000000137e-01 -5.730629999999999891e-01 7.235190000000000232e-01 1.290719999999999923e-01 -8.727869999999999795e-01 -6.764900000000000080e-02 3.197630000000000194e-01 -1.256859999999999922e-01 -2.973859999999999837e-01 -2.164169999999999983e-01 -3.339980000000000171e-01 -1.880940000000000112e-01 3.388499999999999845e-02 -9.168509999999999716e-01 1.392420000000000047e-01 -1.949499999999999844e-02 -3.410500000000000337e-02 4.214390000000000081e-01 -1.555229999999999946e-01 7.686420000000000474e-01 8.844769999999999577e-01 -4.061569999999999903e-01 -1.460579999999999934e-01 2.308080000000000132e-01 -2.805699999999999861e-01 -9.547870000000000523e-01 -4.447409999999999974e-01 4.867079999999999740e-01 8.453900000000000303e-02 -7.650519999999999543e-01 -1.286909999999999998e-01 -9.894589999999999774e-01 -6.722150000000000070e-01 6.324499999999999567e-01 -5.529800000000000271e-01 -2.989550000000000263e-01 1.096154000000000073e+00 3.044319999999999804e-01 -2.037180000000000102e-01 9.643599999999999395e-02 -1.688800000000000023e-02 -2.585919999999999885e-01 3.238010000000000055e-01 -7.333640000000000159e-01 -7.627770000000000383e-01 -6.301900000000000557e-02 -2.700159999999999783e-01 -3.064749999999999974e-01 -1.585920000000000107e-01 5.708980000000000166e-01 -5.941670000000000007e-01 1.206800000000000060e-02 -3.400569999999999982e-01 2.697390000000000065e-01 -4.134800000000000281e-02 -8.264900000000000024e-02 -3.265989999999999727e-01 4.382770000000000277e-01 -1.796860000000000124e-01 -2.302140000000000020e-01 -2.199639999999999929e-01 -9.197800000000000420e-02 -3.454889999999999906e-01 -2.203400000000000150e-02 6.128059999999999619e-01 9.085799999999999432e-02 -6.088080000000000158e-01 2.931100000000000025e-02 2.052309999999999968e-01 1.884230000000000071e-01 -5.647300000000000236e-02 4.460770000000000013e-01 1.009299999999999954e-02 -9.082759999999999723e-01 5.950480000000000214e-01 -8.680919999999999748e-01 -3.216820000000000235e-01 1.458430000000000004e-01 -4.873540000000000094e-01 1.109369999999999967e+00 -3.565019999999999856e-01 1.465600000000000062e-02 1.641930000000000056e-01 1.007630000000000053e-01 -3.597119999999999762e-01 -3.996999999999999859e-02 -1.578779999999999906e-01 3.259420000000000095e-01 -6.376340000000000341e-01 6.793100000000000527e-02 -2.922960000000000003e-01 8.484949999999999992e-01 -1.000210999999999961e+00 4.518070000000000142e-01 4.302090000000000081e-01 1.842390999999999890e+00 7.734299999999999509e-02 2.819619999999999904e-01 5.742300000000000182e-02 1.936999999999999920e-03 -1.049810000000000049e-01 -2.681769999999999987e-01 2.151720000000000022e-01 -1.549999999999999989e-02 3.555260000000000087e-01 5.274280000000000079e-01 -1.052866999999999997e+00 7.983649999999999913e-01 1.267562999999999995e+00 2.782229999999999981e-01 5.504700000000000149e-01 -3.128090000000000037e-01 4.209649999999999781e-01 3.631010000000000071e-01 5.408439999999999914e-01 -1.178900000000000087e-02 3.206249999999999933e-01 8.683899999999999952e-02 -2.139199999999999990e-01 -3.535200000000000009e-01 -4.466809999999999947e-01 1.751669999999999894e-01 -1.407100000000000017e-01 4.014700000000000213e-02 -6.122140000000000359e-01 -5.591040000000000454e-01 1.528819999999999901e-01 6.132239999999999913e-01 -4.445669999999999900e-01 -4.466999999999999617e-03 -6.052140000000000297e-01 3.201350000000000029e-01 2.859720000000000040e-01 6.446950000000000180e-01 1.437500999999999918e+00 3.212860000000000160e-01 -3.040499999999999869e-01 -9.625100000000000322e-02 -6.648020000000000040e-01 -8.519999999999999796e-02 1.817989999999999884e-01 3.710700000000000109e-02 -1.270940000000000125e-01 -2.706069999999999864e-01 -1.186574999999999935e+00 1.392609999999999959e-01 -5.399239999999999595e-01 2.938669999999999893e-01 6.327580000000000426e-01 -1.770710000000000062e-01 1.326430000000000109e-01 4.205199999999999910e-02 3.998100000000000265e-02 6.529019999999999824e-01 -5.756200000000000205e-02 -2.794019999999999837e-01 1.779590000000000061e-01 4.990240000000000231e-01 1.808869999999999922e-01 3.731169999999999765e-01 3.401520000000000099e-01 4.917400000000000243e-02 -5.356699999999999795e-01 -1.073979999999999935e-01 -3.107700000000000046e-02 -1.685039999999999871e-01 -2.548739999999999895e-01 -1.843210000000000126e-01 -4.808200000000000252e-01 -3.397109999999999852e-01 -2.092729999999999868e-01 4.535580000000000167e-01 7.646300000000000319e-01 2.601700000000000124e-01 3.779210000000000069e-01 -2.701760000000000272e-01 7.432699999999999863e-01 -1.201311000000000018e+00 -5.243320000000000203e-01 -2.542090000000000183e-01 9.404989999999999739e-01 4.105409999999999893e-01 9.084090000000000220e-01 -2.485110000000000097e-01 -6.163849999999999607e-01 -4.526569999999999760e-01 -5.252729999999999899e-01 1.848849999999999938e-01 -3.767530000000000046e-01 -7.833430000000000115e-01 -7.235500000000000265e-02 -2.790409999999999835e-01 3.179699999999999888e-02 3.164759999999999796e-01 -8.253059999999999841e-01 -1.191030000000000005e-01 6.632740000000000302e-01 4.657599999999999935e-02 9.271420000000000217e-01 6.981849999999999445e-01 -5.071600000000000552e-01 3.482239999999999780e-01 1.158980000000000010e-01 -1.360740000000000005e-01 3.598489999999999744e-01 1.257902000000000076e+00 -6.395809999999999551e-01 7.617040000000000477e-01 -9.638229999999999853e-01 -7.141979999999999995e-01 -5.170289999999999608e-01 1.406419999999999892e-01 2.689190000000000191e-01 -2.053049999999999875e-01 -3.864119999999999777e-01 -6.298219999999999930e-01 -9.505500000000000060e-02 -1.932250000000000079e-01 4.642199999999999799e-02 7.252420000000000533e-01 1.741570000000000062e-01 -1.748419999999999974e-01 -2.196342000000000017e+00 2.484280000000000099e-01 -8.967570000000000263e-01 1.021949999999999914e+00 -9.032810000000000006e-01 1.775760000000000116e-01 5.307420000000000471e-01 -2.447330000000000061e-01 7.948380000000000445e-01 4.171119999999999828e-01 -1.658330000000000082e-01 8.227800000000000391e-02 -7.155799999999999661e-02 3.164899999999999936e-01 1.433999999999999997e-01 -6.633499999999999952e-01 1.324819999999999887e-01 -3.184779999999999833e-01 -6.356730000000000436e-01 -2.939840000000000231e-01 1.892100000000000032e-02 9.076499999999999846e-02 -8.232200000000000628e-02 7.066700000000000204e-01 -4.442099999999999937e-01 6.552630000000000399e-01 4.731799999999999895e-02 4.353400000000000325e-02 -4.612769999999999926e-01 3.766499999999999709e-02 1.066089999999999954e-01 -1.753270000000000106e-01 -2.310190000000000021e-01 -1.496969999999999912e+00 8.274800000000000211e-02 5.014300000000000423e-01 -1.443579999999999863e-01 1.324150000000000049e-01 2.222040000000000126e-01 5.537140000000000395e-01 8.900999999999999190e-03 -2.698760000000000048e-01 6.323100000000000387e-01 1.231399999999999995e-01 2.216839999999999922e-01 -1.914069999999999938e-01 5.752990000000000048e-01 -4.468739999999999934e-01 3.159460000000000046e-01 -4.193430000000000213e-01 -2.037699999999999928e-02 3.738890000000000269e-01 -7.688200000000000589e-02 4.937449999999999894e-01 7.934799999999999631e-01 5.939999999999999968e-03 4.698849999999999971e-01 8.224129999999999496e-01 -1.132060000000000011e-01 -7.438000000000000167e-02 8.620179999999999509e-01 -5.298629999999999729e-01 6.097000000000000197e-01 -6.360419999999999963e-01 3.459639999999999938e-01 -2.824710000000000276e-01 -1.839089999999999892e-01 2.235290000000000055e-01 -4.310669999999999780e-01 1.283598000000000017e+00 2.251900000000000082e-02 -4.259839999999999738e-01 -6.768960000000000532e-01 -3.025320000000000231e-01 -8.019119999999999582e-01 5.650859999999999772e-01 1.054770999999999903e+00 -4.007220000000000226e-01 -6.111899999999999972e-02 -3.565079999999999916e-01 -2.446560000000000124e-01 5.422139999999999738e-01 -1.676809999999999912e+00 -7.158700000000000063e-01 7.484200000000000574e-02 6.358979999999999633e-01 -3.139170000000000016e-01 2.731899999999999953e-02 -2.647220000000000129e-01 -5.335700000000000165e-02 -2.983200000000000088e-02 1.141739999999999977e-01 3.622650000000000037e-01 -5.374899999999999817e-02 5.564700000000000202e-02 -2.248779999999999946e-01 -1.036194000000000059e+00 1.000569999999999932e-01 3.791329999999999978e-01 3.678819999999999868e-01 -2.583860000000000046e-01 4.854970000000000119e-01 1.364130000000000065e-01 2.025899999999999923e-01 3.266430000000000167e-01 -4.628479999999999817e-01 3.624709999999999877e-01 -1.518039999999999945e-01 2.313310000000000088e-01 -9.425700000000000189e-01 2.659869999999999735e-01 1.836869999999999892e-01 5.404999999999999805e-01 2.848379999999999801e-01 -2.198500000000000107e-02 2.625219999999999776e-01 4.912670000000000092e-01 4.554039999999999755e-01 -2.958169999999999966e-01 6.346070000000000322e-01 4.705820000000000003e-01 6.095500000000000224e-02 6.183260000000000423e-01 -5.213269999999999849e-01 -3.378199999999999953e-02 -1.382300000000000022e-02 -3.676800000000000068e-01 -2.076719000000000204e+00 1.909999999999999892e-02 4.423009999999999997e-01 -7.859199999999999520e-02 -2.139900000000000135e-01 3.485190000000000232e-01 -2.652669999999999750e-01 4.913509999999999822e-01 -2.205340000000000078e-01 -7.841399999999999759e-02 4.140440000000000231e-01 4.746999999999999831e-02 1.504899999999999988e-02 -7.911019999999999719e-01 4.531540000000000012e-01 1.214800000000000081e-02 -3.704830000000000068e-01 5.249620000000000397e-01 2.796500000000000027e-02 -5.623399999999999510e-01 3.565710000000000268e-01 -1.618360000000000076e-01 -4.048140000000000072e-01 2.409999999999999989e-02 -2.645000000000000129e-01 2.592800000000000105e-01 -1.015204999999999913e+00 -2.586890000000000023e-01 -2.367509999999999892e-01 5.540220000000000145e-01 -1.117016000000000009e+00 -5.044600000000000195e-01 -1.751359999999999861e-01 -4.696930000000000271e-01 -2.370659999999999989e-01 1.455869999999999942e-01 -7.181380000000000541e-01 1.275179999999999925e-01 -1.147000000000000016e-03 -2.318972000000000033e+00 -4.543599999999999722e-02 -1.918179999999999885e-01 7.472039999999999793e-01 1.263009999999999966e-01 2.342440000000000078e-01 1.709610000000000019e-01 -9.739599999999999647e-02 5.160660000000000247e-01 6.927480000000000304e-01 6.718999999999999972e-02 3.409699999999999953e-01 1.348530000000000006e-01 3.207050000000000178e-01 2.994660000000000100e-01 -4.388369999999999771e-01 -3.776720000000000077e-01 4.828199999999999853e-02 -1.700939999999999952e-01 2.513690000000000091e-01 7.100000000000000408e-03 -1.116719999999999935e-01 -5.667010000000000103e-01 -2.042769999999999864e-01 6.487640000000000073e-01 -7.433889999999999665e-01 3.713480000000000114e-01 1.785339999999999983e-01 4.991280000000000161e-01 8.648780000000000356e-01 1.298040000000000027e-01 -7.552090000000000192e-01 6.239170000000000549e-01 -1.584000000000000130e-01 1.125580000000000053e-01 -1.999910999999999994e+00 1.156006000000000089e+00 3.825120000000000187e-01 -1.280663000000000107e+00 -2.341880000000000073e-01 3.863300000000000067e-01 -3.272090000000000276e-01 -2.052539999999999920e-01 2.677510000000000168e-01 -8.126579999999999915e-01 -7.859249999999999847e-01 -9.837669999999999471e-01 1.170188999999999924e+00 1.280599999999999968e-02 7.728859999999999619e-01 -1.069289999999999963e-01 -1.538600000000000037e-02 -1.774139999999999884e-01 2.871369999999999756e-01 1.624049999999999938e-01 -6.155960000000000321e-01 -1.026340000000000030e-01 -4.177520000000000122e-01 -2.689000000000000071e-02 -1.657810000000000117e-01 -4.693390000000000062e-01 -2.630560000000000120e-01 6.828140000000000320e-01 -2.495789999999999953e-01 -1.506879999999999886e-01 4.988100000000000173e-02 3.386830000000000118e-01 -2.541640000000000010e-01 1.325089999999999879e-01 3.621820000000000039e-01 -7.697099999999999775e-02 -1.728787000000000074e+00 -8.848000000000000309e-02 -8.429600000000000426e-01 5.155269999999999575e-01 -1.333729999999999916e-01 -1.427589999999999970e-01 2.595700000000000091e-02 -3.391239999999999810e-01 -1.447141999999999928e+00 -6.845999999999999863e-01 3.861399999999999832e-01 6.844580000000000108e-01 7.729549999999999477e-01 -1.384540000000000104e+00 6.533849999999999936e-01 1.582535999999999943e+00 1.486200000000000021e-02 6.776259999999999506e-01 8.680989999999999540e-01 -1.801889999999999881e-01 6.074180000000000135e-01 -7.440780000000000172e-01 1.151645000000000030e+00 1.798069999999999946e-01 2.199720000000000009e-01 -1.520199999999999885e-01 -4.934999999999999942e-01 4.807350000000000234e-01 -8.356850000000000112e-01 2.152835000000000054e+00 9.843709999999999960e-01 -3.586309999999999776e-01 1.547091999999999912e+00 8.502210000000000045e-01 -1.321009000000000100e+00 1.271965000000000012e+00 -1.396228999999999942e+00 -1.148557999999999968e+00 -3.645689999999999764e-01 -3.550039999999999862e-01 -9.216199999999999948e-01 9.380439999999999889e-01 -1.978564999999999907e+00 7.673299999999999566e-02 -6.243250000000000188e-01 5.205100000000000005e-02 -6.726220000000000532e-01 3.203840000000000021e-01 -9.945429999999999549e-01 -1.799650000000000138e-01 2.862303999999999959e+00 -4.240639999999999965e-01 -1.199001999999999901e+00 -1.130052999999999974e+00 1.848734000000000099e+00 3.477689999999999948e-01 2.191934999999999967e+00 1.267222000000000071e+00 5.165100000000000247e-01 7.117400000000000115e-02 7.289339999999999709e-01 5.627929999999999877e-01 1.552502000000000049e+00 4.838040000000000118e-01 -6.945999999999999397e-02 -7.977699999999999791e-01 -9.303420000000000023e-01 -2.428265999999999813e+00 -2.033545000000000158e+00 1.967537000000000091e+00 -1.844591000000000092e+00 -1.524139999999999939e-01 3.718250000000000166e-01 -2.997299999999999964e-01 1.801104000000000038e+00 -7.202370000000000161e-01 -3.485260000000000025e-01 1.314629999999999965e-01 -6.347949999999999982e-01 -1.994499999999999940e+00 -7.335629999999999651e-01 1.406481000000000092e+00 -1.698436000000000057e+00 -1.139145999999999992e+00 1.317185999999999968e+00 1.556300999999999934e+00 -1.845430000000000126e-01 1.603947999999999929e+00 -2.076640999999999959e+00 1.185540999999999956e+00 -6.569810000000000372e-01 -6.745290000000000452e-01 1.761129999999999918e-01 -1.823100000000000068e-02 7.210459999999999647e-01 2.053039999999999865e-01 -5.657940000000000191e-01 -4.276690000000000214e-01 -2.566680999999999990e+00 8.160699999999999621e-01 1.219281000000000059e+00 1.493549999999999878e-01 7.753999999999999608e-03 -1.285630000000000051e+00 -5.263929999999999998e-01 2.078939999999999955e-01 1.485573000000000032e+00 -4.238750000000000018e-01 -3.855950000000000211e-01 1.345126999999999962e+00 -1.341032999999999920e+00 -7.193800000000000194e-02 8.314639999999999809e-01 -4.658649999999999736e-01 -8.495890000000000386e-01 -2.276099999999999998e-02 -4.589300000000000046e-01 8.192989999999999995e-01 -1.185645000000000060e+00 -1.230614000000000097e+00 1.266609999999999958e-01 3.374300000000000216e-02 8.478339999999999765e-01 -1.640298000000000034e+00 -1.347223999999999977e+00 3.671441000000000177e+00 1.966104999999999992e+00 -1.023899999999999949e-01 -1.895339000000000107e+00 1.400884999999999936e+00 1.046572999999999976e+00 -2.174590000000000134e-01 -6.378679999999999906e-01 -2.048138999999999932e+00 1.532499999999999973e+00 -5.315689999999999582e-01 1.817541999999999991e+00 -1.579679999999999973e-01 -2.151978999999999864e+00 9.724530000000000118e-01 2.557630000000000181e-01 -1.291271000000000058e+00 -3.348260000000000125e-01 -1.195778999999999925e+00 -8.031700000000000506e-01 1.691654999999999909e+00 2.242540000000000089e-01 1.040159999999999973e-01 -1.496874000000000038e+00 2.940304999999999946e+00 -1.455420000000000047e-01 -1.594471999999999889e+00 -9.622400000000000397e-02 -1.536588999999999983e+00 -4.498249999999999749e-01 -2.787009999999999765e-01 -7.573990000000000444e-01 -9.512669999999999737e-01 1.107901000000000025e+00 -2.105999999999999799e-03 2.653824000000000183e+00 -2.009460000000000135e-01 7.087470000000000159e-01 5.173499999999999766e-01 3.289300000000000002e-01 9.633319999999999661e-01 2.954390000000000072e-01 4.661219999999999808e-01 -6.298869999999999747e-01 -8.845889999999999587e-01 4.271030000000000104e-01 2.417700000000000057e-02 2.812230000000000008e-01 -2.622039999999999926e-01 3.071039999999999881e-01 1.004777999999999949e+00 -8.741060000000000496e-01 -4.610890000000000266e-01 1.511840999999999990e+00 -5.946919999999999984e-01 -3.773929999999999785e-01 1.794537000000000049e+00 -8.783659999999999801e-01 6.809999999999999387e-02 1.127977999999999925e+00 -3.403930000000000011e-01 5.851570000000000382e-01 -1.341571999999999987e+00 1.097718999999999889e+00 6.029130000000000322e-01 2.290599999999999928e-02 2.852379999999999916e-01 5.305999999999999606e-01 1.405766000000000071e+00 -1.561639999999999973e-01 -4.703379999999999783e-01 -2.154599999999999918e-02 -8.823330000000000339e-01 -2.814550000000000107e-01 -4.348060000000000258e-01 -7.847720000000000251e-01 1.184200000000000010e-02 4.141400000000000081e-01 -4.550130000000000008e-01 1.009698999999999902e+00 -7.549120000000000275e-01 4.219680000000000097e-01 -2.930880000000000152e-01 -8.620860000000000190e-01 -1.092438999999999938e+00 9.918050000000000477e-01 7.174580000000000402e-01 -5.131069999999999798e-01 1.297106000000000092e+00 1.268191000000000068e+00 -2.343750000000000000e-01 7.476530000000000120e-01 8.052359999999999518e-01 -1.532860000000000056e-01 1.092227000000000059e+00 5.840260000000000451e-01 -1.730979000000000045e+00 4.870940000000000270e-01 -3.365440000000000098e-01 -1.770631000000000066e+00 6.033669999999999867e-01 2.479392999999999958e+00 1.447685000000000111e+00 -5.171080000000000121e-01 8.914170000000000149e-01 -2.665299999999999891e-01 1.379725000000000090e+00 -1.268070999999999948e+00 9.115010000000000057e-01 7.053329999999999878e-01 6.366230000000000500e-01 -2.921090000000000075e-01 -7.904120000000000035e-01 8.013439999999999452e-01 4.992889999999999828e-01 7.728690000000000282e-01 1.547813000000000105e+00 5.205950000000000299e-01 8.216639999999999500e-01 3.991600000000000148e-01 9.165389999999999926e-01 -1.814630000000000132e-01 -7.778340000000000254e-01 -1.002099999999999991e+00 -2.468499999999999861e-02 -2.406230000000000036e-01 1.814590000000000092e-01 -1.350870999999999933e+00 -2.138990999999999865e+00 3.700990000000000113e-01 -1.103177999999999992e+00 2.416270000000000084e-01 -8.660330000000000528e-01 -1.016520000000000062e-01 9.374909999999999632e-01 6.969149999999999512e-01 3.016128999999999838e+00 -8.230110000000000481e-01 1.453878000000000004e+00 1.246598000000000095e+00 5.165980000000000016e-01 1.681539999999999979e-01 -6.760129999999999750e-01 -8.259000000000000716e-03 -5.000999999999999890e-01 -4.321559999999999846e-01 2.897660000000000236e-01 1.208036000000000110e+00 -5.118329999999999824e-01 -1.450287000000000104e+00 2.778030000000000221e-01 -2.329804000000000208e+00 -1.475678000000000045e+00 -6.661780000000000479e-01 -9.380370000000000097e-01 3.371170000000000000e-01 -1.016869999999999996e-01 4.282110000000000083e-01 3.138179999999999858e-01 6.574000000000000676e-02 9.532799999999999607e-02 1.815198000000000089e+00 -1.156172999999999895e+00 -1.023620999999999892e+00 3.051380000000000203e-01 -1.443664999999999976e+00 1.176673000000000080e+00 -6.202300000000000174e-02 -6.752299999999999969e-02 -7.311210000000000209e-01 4.257600000000000273e-02 -4.284899999999999820e-01 -1.515150999999999915e+00 -3.400369999999999782e-01 -7.213429999999999565e-01 -2.260040000000000104e-01 -2.096760000000000013e-01 5.085279999999999800e-01 -1.249054000000000109e+00 -6.699699999999999545e-01 -1.690510000000000068e-01 -1.283603000000000049e+00 5.854540000000000299e-01 -1.013873000000000024e+00 1.334724000000000022e+00 2.870550000000000046e-01 4.188839999999999786e-01 -3.794960000000000000e-01 -7.896250000000000213e-01 5.367049999999999876e-01 -8.626819999999999489e-01 -2.667740000000000111e-01 -2.722359999999999780e-01 -4.613579999999999903e-01 8.252000000000000654e-03 2.450940000000000063e-01 -1.186638999999999999e+00 1.141383999999999954e+00 4.850189999999999779e-01 4.554590000000000027e-01 9.744300000000000184e-02 5.202099999999999780e-02 -2.777069999999999816e-01 -3.647710000000000119e-01 -7.021150000000000446e-01 -8.748529999999999918e-01 2.666740000000000221e-01 -3.361450000000000271e-01 5.050900000000000389e-01 -8.745200000000000196e-02 -1.198325000000000085e+00 -2.416770000000000029e-01 7.883149999999999880e-01 -1.545137999999999900e+00 -1.171627999999999892e+00 -6.592360000000000442e-01 7.311649999999999539e-01 3.642139999999999822e-01 -4.283700000000000008e-02 -1.958779999999999966e-01 -8.131840000000000179e-01 -4.286730000000000262e-01 7.701080000000000148e-01 -1.311841999999999953e+00 -8.342469999999999608e-01 -7.755659999999999776e-01 2.516615999999999964e+00 1.760768000000000111e+00 4.510000000000000120e-02 5.564400000000000457e-01 7.647119999999999473e-01 7.459869999999999557e-01 -7.603239999999999998e-01 -3.027600000000000083e-02 -8.186320000000000263e-01 -1.582835999999999910e+00 -1.296076999999999924e+00 -6.722209999999999575e-01 1.819595000000000073e+00 6.111849999999999783e-01 -2.997700000000000017e-02 4.808089999999999864e-01 -1.007369999999999932e-01 5.225520000000000165e-01 -4.344199999999999728e-01 5.481479999999999686e-01 8.030190000000000383e-01 -7.323889999999999567e-01 -9.777139999999999720e-01 1.503619000000000039e+00 8.921350000000000113e-01 1.392089999999999994e-01 9.395210000000000505e-01 4.457550000000000123e-01 4.451769999999999894e-01 7.933649999999999869e-01 -5.678400000000000114e-01 1.156879999999999992e-01 -1.304720000000000102e+00 -7.604090000000000016e-01 5.899520000000000319e-01 -3.767110000000000181e-01 -2.940760000000000041e-01 5.922129999999999894e-01 -5.918980000000000352e-01 -1.927619999999999889e-01 2.528540000000000232e-01 -4.834189999999999876e-01 -1.145866999999999969e+00 3.778889999999999749e-01 -6.048189999999999955e-01 9.915599999999999414e-02 1.006639999999999979e+00 1.784300000000000053e-01 2.049559999999999993e-01 -1.914309999999999901e-01 5.904329999999999856e-01 -3.805900000000000255e-02 2.373170000000000002e-01 1.498569999999999902e-01 2.690899999999999959e-01 -1.679779999999999884e-01 2.267520000000000091e-01 -8.190079999999999583e-01 6.476760000000000295e-01 -5.573869999999999658e-01 2.509230000000000071e-01 -1.677588000000000079e+00 -1.275352000000000041e+00 2.126389999999999947e-01 2.906750000000000167e-01 -5.492350000000000287e-01 -1.755359999999999976e-01 7.115629999999999455e-01 -7.048950000000000493e-01 -6.785269999999999913e-01 1.416617000000000015e+00 1.600000000000000033e-01 -6.574189999999999756e-01 -1.083800000000000041e-01 -1.276942000000000021e+00 6.490609999999999991e-01 2.439610000000000112e-01 8.755400000000000682e-02 -1.153500000000000011e-02 9.114700000000000024e-01 7.365040000000000475e-01 -5.767459999999999809e-01 2.179059999999999886e-01 2.023439999999999961e-01 2.380790000000000128e-01 -6.690859999999999586e-01 1.297072999999999920e+00 -7.263579999999999481e-01 -9.769020000000000481e-01 2.011391000000000151e+00 -2.021979999999999889e-01 -1.105855000000000032e+00 1.232628000000000057e+00 -5.790100000000000108e-02 9.286590000000000122e-01 6.975120000000000209e-01 8.149199999999999500e-02 1.521409000000000011e+00 9.341580000000000439e-01 -3.031900000000000150e-01 1.466128000000000098e+00 2.289899999999999991e-01 -8.796680000000000055e-01 -1.427613999999999939e+00 2.195081000000000060e+00 -7.912299999999999889e-02 2.286325999999999858e+00 5.000790000000000513e-01 -1.254655999999999993e+00 5.531540000000000346e-01 -5.635940000000000394e-01 -9.101369999999999738e-01 3.914670000000000094e-01 -1.284609999999999919e-01 -8.144500000000000073e-01 7.243549999999999711e-01 -8.892799999999999316e-02 -5.585799999999999654e-01 -1.506459999999999910e+00 -1.275193999999999939e+00 -3.184799999999999853e-01 -1.927299000000000095e+00 -5.259300000000000086e-01 1.604609999999999925e-01 1.042361000000000093e+00 1.352953000000000072e+00 -1.103110000000000063e-01 5.917000000000000037e-02 5.680220000000000269e-01 -2.502949999999999897e-01 5.494499999999999940e-01 -9.159040000000000514e-01 2.262281000000000208e+00 -2.509529999999999816e+00 4.513130000000000197e-01 -7.739770000000000261e-01 -5.574789999999999468e-01 -7.944160000000000110e-01 -4.219249999999999945e-01 1.952520000000000089e-01 8.061150000000000260e-01 -5.894900000000000140e-02 -9.842710000000000070e-01 -1.894170000000000020e-01 -2.096999999999999906e-02 7.826509999999999856e-01 4.602359999999999784e-01 4.079579999999999873e-01 1.285374000000000017e+00 -7.329120000000000079e-01 1.348799999999999999e-02 -1.509729999999999961e-01 1.876829999999999887e-01 1.493873999999999924e+00 -3.747590000000000088e-01 -7.585549999999999793e-01 1.940880000000000105e-01 1.135796000000000028e+00 4.681930000000000258e-01 -5.369340000000000224e-01 -1.890447999999999906e+00 -2.807790000000000008e-01 1.898660000000000070e-01 -7.751479999999999482e-01 -3.301169999999999938e-01 -4.109000000000000152e-02 -1.020480000000000054e+00 7.182720000000000216e-01 -1.019449999999999967e+00 -4.091800000000000298e-02 -2.181869999999999921e-01 8.928800000000000625e-02 -6.014239999999999586e-01 -1.179863000000000106e+00 2.248390000000000111e-01 5.566079999999999917e-01 3.949010000000000020e-01 -1.937500000000000056e-01 -8.137849999999999806e-01 1.088430999999999926e+00 1.866949999999999998e-01 -3.899599999999999733e-01 5.189599999999999769e-02 2.751029999999999864e-01 3.243809999999999749e-01 1.591279000000000110e+00 5.965690000000000159e-01 -1.008016000000000023e+00 5.680539999999999479e-01 1.322259999999999991e+00 -4.678289999999999949e-01 8.270450000000000301e-01 -8.634910000000000085e-01 1.153649999999999953e-01 1.428379999999999928e-01 5.720119999999999649e-01 -6.663270000000000026e-01 -3.551349999999999785e-01 -8.398719999999999519e-01 -8.351169999999999982e-01 1.597947000000000006e+00 3.438370000000000037e-01 -7.136900000000000188e-02 -2.746700000000000252e-01 2.084556000000000076e+00 -2.359829999999999983e-01 -2.274032000000000053e+00 -3.738000000000000211e-01 1.601500000000000146e-02 -6.952999999999999979e-03 -8.865140000000000242e-01 9.193829999999999503e-01 1.001862000000000030e+00 2.817451999999999845e+00 -7.122629999999999795e-01 -8.845690000000000497e-01 -1.525708999999999982e+00 -4.694559999999999844e-01 1.085804999999999909e+00 1.676239999999999952e-01 9.351479999999999793e-01 1.380139000000000005e+00 -1.583485000000000031e+00 4.432659999999999934e-01 -1.717690000000000050e-01 -4.987799999999999873e-02 1.445510000000000128e-01 -1.495579999999999965e-01 -1.056105999999999989e+00 4.000219999999999887e-01 -3.281120000000000148e-01 -2.190008000000000177e+00 2.712807000000000190e+00 9.303010000000000446e-01 -1.381602999999999914e+00 1.214909999999999934e+00 4.540899999999999936e-01 -1.082327000000000039e+00 -1.707420000000000049e-01 -1.144362000000000101e+00 -2.506169999999999787e-01 6.894709999999999450e-01 6.125230000000000397e-01 -3.329300000000000315e-02 2.570760000000000267e-01 6.643899999999999806e-02 -1.130017000000000049e+00 -3.228770000000000251e-01 -8.179400000000000004e-01 3.664099999999999996e-02 5.102259999999999573e-01 -8.361720000000000264e-01 6.972850000000000437e-01 7.181359999999999966e-01 1.124203000000000063e+00 -6.256129999999999747e-01 3.379770000000000274e-01 -1.013322000000000056e+00 -7.461729999999999752e-01 1.354400000000000048e-02 -8.495519999999999738e-01 9.499969999999999803e-01 5.356600000000000250e-01 -6.308920000000000083e-01 -1.856130000000000058e+00 -2.113889999999999936e-01 5.010179999999999634e-01 -4.465509999999999757e-01 4.153319999999999790e-01 4.205300000000000010e-02 5.280909999999999771e-01 7.284890000000000532e-01 2.191800000000000137e-01 1.690720000000000001e+00 1.189988000000000046e+00 -5.246410000000000240e-01 8.071770000000000334e-01 1.194690000000000057e-01 8.412439999999999918e-01 6.618799999999999684e-02 -1.035053999999999919e+00 -2.365339999999999943e-01 2.456699999999999856e-02 -1.568420000000000092e-01 -7.099480000000000235e-01 4.410499999999999837e-02 5.690450000000000230e-01 -7.783649999999999736e-01 -1.816629999999999912e-01 -7.994459999999999900e-01 4.324629999999999863e-01 -2.124290000000000067e-01 6.230219999999999647e-01 -6.612600000000000422e-02 2.469669999999999921e-01 6.414189999999999614e-01 2.844800000000000106e-01 1.478929999999999967e-01 -6.370559999999999556e-01 -1.290332000000000034e+00 -4.266059999999999852e-01 3.127449999999999952e-01 -1.014216000000000006e+00 1.388311999999999991e+00 1.074254999999999960e+00 -1.164840000000000098e+00 -9.031510000000000371e-01 5.325199999999999934e-01 -6.927250000000000352e-01 -1.543090000000000017e-01 -1.210699999999999971e-02 -1.915818999999999939e+00 1.276580999999999966e+00 3.093580000000000219e-01 6.750000000000000444e-01 8.586049999999999516e-01 -6.797349999999999781e-01 9.037349999999999550e-01 2.125779000000000085e+00 -1.800910000000000011e-01 8.200060000000000127e-01 8.368480000000000363e-01 1.521639999999999937e-01 1.284154999999999935e+00 1.313342999999999927e+00 6.098689999999999944e-01 3.838019999999999765e-01 -1.903950000000000087e-01 2.315510000000000068e-01 -3.846499999999999919e-02 1.092879999999999963e-01 -1.598889000000000005e+00 9.777740000000000320e-01 3.079740000000000255e-01 -1.338349000000000011e+00 1.069471000000000060e+00 1.753543000000000074e+00 -6.867050000000000098e-01 -1.257093999999999934e+00 2.314350000000000018e-01 4.054719999999999991e-01 -1.008647999999999989e+00 2.733430000000000026e-01 -1.203570000000000056e-01 2.246509999999999896e-01 1.471800000000000018e-02 -1.023967999999999989e+00 6.990110000000000490e-01 -8.229809999999999626e-01 1.570888999999999980e+00 -7.613140000000000462e-01 5.961400000000000032e-02 3.837189999999999768e-01 -2.465630000000000044e-01 -2.943300000000000083e-02 1.516612000000000071e+00 -1.470264000000000015e+00 3.52717999