-1.667771200740000040e+03
-1.662809185939999907e+03
-1.664314434169999913e+03
-1.659492409299999963e+03
-1.660149645330000112e+03
-1.681538247559999945e+03
-1.662224408940000103e+03
-1.659205521039999894e+03
-1.665250246520000019e+03
-1.661379819859999998e+03
-1.661862429380000094e+03
-1.662460339160000103e+03
-1.678871430780000082e+03
-1.669987557989999914e+03
-1.663865493060000063e+03
-1.662008869069999946e+03
-1.665968761659999927e+03
-1.661701066569999966e+03
-1.661979417539999986e+03
-1.661443986049999921e+03
-1.655794834979999905e+03
-1.658829252060000044e+03
-1.660883584610000071e+03
-1.665105250359999900e+03
-1.659959645480000063e+03
-1.659235692830000062e+03
-1.667507777060000080e+03
-1.661986296439999933e+03
-1.664347751120000112e+03
-1.659188825230000020e+03
-1.661121293960000003e+03
-1.660006162140000015e+03
-1.661430870740000046e+03
-1.660450698740000007e+03
-1.661001098440000078e+03
-1.656800032789999932e+03
-1.660366695270000037e+03
-1.666098731230000112e+03
-1.664826273630000060e+03
-1.665427803399999902e+03
-1.662486962530000028e+03
-1.662335386140000082e+03
-1.662749561899999890e+03
-1.661510442730000022e+03
-1.661115358040000046e+03
-1.663414602309999964e+03
-1.660465225469999950e+03
-1.664722675089999939e+03
-1.659353099209999982e+03
-1.668901172880000104e+03
-1.665050343379999958e+03
-1.664602929079999967e+03
-1.664203443599999900e+03
-1.657865876710000066e+03
-1.658795881810000083e+03
-1.660511829810000108e+03
-1.662293604640000012e+03
-1.662309324600000082e+03
-1.664673125269999900e+03
-1.663235489350000080e+03
-1.660067333929999904e+03
-1.659125752879999936e+03
-1.663397862119999900e+03
-1.660723180669999920e+03
-1.661946666710000045e+03
-1.663295228319999978e+03
-1.668551118880000104e+03
-1.662238008040000068e+03
-1.663907524490000014e+03
-1.662946777379999958e+03
-1.662087902299999996e+03
-1.663809892949999949e+03
-1.666385444810000081e+03
-1.662820175620000100e+03
-1.669298543430000109e+03
-1.656571659769999997e+03
-1.662936026889999994e+03
-1.658069036450000112e+03
-1.657513166360000014e+03
-1.658263331139999991e+03
-1.664727842419999888e+03
-1.659039892869999903e+03
-1.661368012429999908e+03
-1.665002228260000038e+03
-1.661558561840000039e+03
-1.661692705120000028e+03
-1.665570549439999922e+03
-1.662042421999999988e+03
-1.663487086840000075e+03
-1.655327015699999947e+03
-1.662659185579999985e+03
-1.659222327400000040e+03
-1.664908608400000048e+03
-1.660301924869999993e+03
-1.663622838430000002e+03
-1.663352818679999928e+03
-1.660892282239999986e+03
-1.662159443239999973e+03
-1.659883508050000046e+03
-1.666572495429999890e+03
-1.662325305950000029e+03
-1.660672486810000009e+03
-1.665934518419999904e+03
-1.664633333239999956e+03
-1.661609712760000093e+03
-1.663029991849999988e+03
-1.662259033600000066e+03
-1.661613514390000091e+03
-1.660088126289999991e+03
-1.661846502730000111e+03
-1.657644532510000090e+03
-1.661900649120000026e+03
-1.664923321779999924e+03
-1.663821835590000092e+03
-1.663848894460000110e+03
-1.659861749659999987e+03
-1.661015434200000072e+03
-1.663797115780000013e+03
-1.663104582380000011e+03
-1.662134785590000092e+03
-1.666339869319999934e+03
-1.658192525559999922e+03
-1.661822779280000077e+03
-1.676692202810000026e+03
-1.665728057020000051e+03
-1.662458258350000051e+03
-1.680351825140000074e+03
-1.660873892220000016e+03
-1.663554153900000074e+03
-1.659500391029999946e+03
-1.667814954279999938e+03
-1.665621665930000063e+03
-1.663304182139999966e+03
-1.661648951699999998e+03
-1.667051790299999993e+03
-1.662422064939999927e+03
-1.661774847409999893e+03
-1.663436595119999993e+03
