-1.659800802030000114e+03
-1.656732871140000043e+03
-1.656161467220000077e+03
-1.659718366300000071e+03
-1.659582015769999998e+03
-1.662103193420000025e+03
-1.659301250129999971e+03
-1.664376108420000037e+03
-1.657846521469999971e+03
-1.656702053389999946e+03
-1.654568276669999932e+03
-1.658411384880000014e+03
-1.674943854030000011e+03
-1.678437618359999988e+03
-1.677159548240000049e+03
-1.659102106880000065e+03
-1.658611121469999944e+03
-1.659325990090000005e+03
-1.662373567009999988e+03
-1.659167339860000084e+03
-1.655442006340000034e+03
-1.664220049560000007e+03
-1.663397563600000012e+03
-1.666926795630000015e+03
-1.663285170460000018e+03
-1.662193490659999952e+03
-1.677927599749999899e+03
-1.655826647180000009e+03
-1.659307519420000062e+03
-1.660818617619999941e+03
-1.663055597690000013e+03
-1.661566363890000048e+03
-1.659438989300000003e+03
-1.656669614749999937e+03
-1.653374906300000021e+03
-1.664303659090000110e+03
-1.662814567240000088e+03
-1.658569877220000080e+03
-1.659217286359999889e+03
-1.658145006610000110e+03
-1.656904584299999897e+03
-1.658935207100000071e+03
-1.655307698589999973e+03
-1.662522015210000063e+03
-1.659789755179999929e+03
-1.660195298229999935e+03
-1.661207246089999899e+03
-1.654227863159999970e+03
-1.662540669579999985e+03
-1.679203265419999980e+03
-1.659655862650000017e+03
-1.659558785489999991e+03
-1.658491309069999943e+03
-1.662182002609999927e+03
-1.655240118100000018e+03
-1.662287487020000071e+03
-1.662702378920000001e+03
-1.676484105060000047e+03
-1.663149029310000060e+03
-1.656857253030000038e+03
-1.655895464570000058e+03
-1.657719197579999900e+03
-1.662766105530000004e+03
-1.653970869559999983e+03
-1.664650466079999887e+03
-1.663980977680000024e+03
-1.666635899610000024e+03
-1.661116471840000031e+03
-1.660840529329999981e+03
-1.659765160630000082e+03
-1.658864237179999918e+03
-1.657088045610000108e+03
-1.657543138920000047e+03
-1.659862399730000107e+03
-1.659803331249999928e+03
-1.659187030090000007e+03
-1.656600591489999942e+03
-1.659423159689999920e+03
-1.675671210449999990e+03
-1.674842299670000102e+03
-1.654252758379999932e+03
-1.658273661680000032e+03
-1.660720033260000037e+03
-1.658844423439999900e+03
-1.680199372170000061e+03
-1.662602144239999916e+03
-1.659390013480000107e+03
-1.664988924490000045e+03
-1.661007617259999961e+03
-1.658876362179999887e+03
-1.680719616589999987e+03
-1.656237737879999941e+03
-1.678667178050000075e+03
-1.681205469459999904e+03
-1.677027307730000075e+03
-1.679937976440000057e+03
-1.663889289230000031e+03
-1.658355615599999965e+03
-1.664815757650000023e+03
-1.660535877159999927e+03
-1.655210857710000028e+03
-1.664362150449999945e+03
-1.658397660390000055e+03
-1.656866821730000083e+03
-1.664611189089999925e+03
-1.657997769909999988e+03
-1.660354268860000047e+03
-1.659362846279999985e+03
-1.657193199130000039e+03
-1.677676159849999976e+03
-1.658081380609999997e+03
-1.661642215159999978e+03
-1.660336591459999909e+03
-1.680024925200000098e+03
-1.660176615159999983e+03
-1.658398852790000092e+03
-1.663319649289999916e+03
-1.662413949300000013e+03
-1.659146256069999936e+03
-1.677285022759999947e+03
-1.657581037480000077e+03
-1.668837701389999893e+03
-1.664802642460000015e+03
-1.661521501709999939e+03
-1.656297013050000032e+03
-1.661978385220000064e+03
-1.657832136029999901e+03
