-2.793199999999999850e-02 -9.815490000000000048e-01 2.233443999999999985e+00 2.064699999999999869e-02 1.031671999999999922e+00 -1.195902999999999938e+00 2.771009999999999862e-01 3.831030000000000268e-01 -7.173640000000000017e-01 -3.326799999999999896e-02 5.653470000000000439e-01 -7.931599999999999762e-02 5.495120000000000005e-01 -5.340099999999999708e-02 -1.054977000000000054e+00 5.796270000000000033e-01 -1.576829999999999898e-01 -5.608410000000000339e-01 2.164729999999999988e-01 1.076529999999999987e-01 -4.074300000000000144e-02 1.324690000000000034e-01 2.095750000000000113e-01 -3.980000000000000031e-03 -7.999800000000000244e-01 -2.253759999999999930e-01 4.366680000000000006e-01 -4.801300000000000012e-02 -2.370279999999999887e-01 5.162699999999999928e-02 6.208900000000000530e-01 -8.894290000000000251e-01 6.858950000000000324e-01 -2.895199999999999996e-01 6.476750000000000007e-01 -2.037100000000000022e-02 2.145350000000000035e-01 4.807999999999999774e-03 3.582159999999999789e-01 -5.531129999999999658e-01 1.642490000000000061e-01 -4.563159999999999994e-01 -4.965379999999999794e-01 7.056719999999999660e-01 9.917199999999999627e-02 -3.462029999999999830e-01 -3.721900000000000208e-02 -3.464990000000000014e-01 -1.591849999999999932e-01 -1.010178000000000020e+00 5.897899999999999671e-02 -9.032400000000000151e-02 -1.420420000000000016e-01 -3.268100000000000172e-02 -1.382839999999999903e-01 1.011750000000000010e-01 -4.209809999999999941e-01 3.653959999999999986e-01 5.741249999999999964e-01 -1.963310000000000055e-01 -2.538009999999999988e-01 4.336180000000000034e-01 -6.350519999999999499e-01 -8.630259999999999598e-01 4.180340000000000167e-01 4.424600000000000199e-01 -8.394799999999999485e-02 4.234200000000000186e-01 3.839980000000000060e-01 2.458609999999999962e-01 -5.778980000000000228e-01 1.290509999999999990e-01 2.485960000000000114e-01 1.528920000000000001e-01 -3.334999999999999857e-03 -3.580769999999999786e-01 1.364268000000000036e+00 4.271969999999999934e-01 2.341799999999999993e-01 2.900050000000000128e-01 -1.850500000000000062e-02 -5.675299999999999789e-01 -9.936559999999999837e-01 4.773339999999999805e-01 7.466120000000000534e-01 -2.756620000000000181e-01 7.592999999999999750e-02 2.488699999999999940e-02 -5.325490000000000501e-01 4.968069999999999986e-01 7.574769999999999559e-01 -9.983599999999999419e-02 -1.150100000000000011e-01 2.031060000000000088e-01 -7.579669999999999463e-01 -6.109799999999999953e-02 1.720645999999999898e+00 -1.279458999999999902e+00 -3.373209999999999820e-01 -2.187810000000000032e-01 1.147460000000000008e-01 -4.598209999999999797e-01 -1.326014000000000026e+00 2.334340000000000026e-01 1.037954999999999961e+00 5.339350000000000485e-01 -3.217800000000000105e-01 -1.517139999999999878e-01 5.596379999999999688e-01 -1.845300000000000065e-02 8.682750000000000190e-01 1.712140000000000051e-01 -2.066129999999999911e-01 -3.459900000000000198e-01 8.457489999999999730e-01 -4.661529999999999840e-01 4.248160000000000269e-01 3.835270000000000068e-01 -2.310999999999999860e-02 2.265299999999999953e-02 -1.293469999999999898e+00 -4.010509999999999908e-01 -1.686419999999999864e-01 -1.001760000000000012e-01 -5.271820000000000395e-01 4.004590000000000094e-01 1.031760000000000038e-01 -8.390300000000000535e-02 -3.547250000000000125e-01 -3.115649999999999809e-01 -2.659759999999999902e-01 -1.411850000000000049e-01 2.218428999999999984e+00 -8.991970000000000240e-01 1.730899999999999939e-01 2.168049999999999977e-01 -1.010650000000000021e-01 -1.284460000000000046e-01 2.813149999999999817e-01 -7.062739999999999574e-01 -3.954199999999999937e-01 -5.711589999999999723e-01 -2.058340999999999976e+00 5.224020000000000330e-01 -6.710559999999999858e-01 -6.484450000000000491e-01 9.309389999999999610e-01 -5.852000000000000431e-03 1.524639999999999884e-01 -4.375700000000000145e-01 -7.108189999999999786e-01 2.203269999999999951e-01 5.790849999999999609e-01 -6.222879999999999523e-01 4.900169999999999804e-01 2.286779999999999924e-01 -3.471060000000000256e-01 1.393469999999999986e-01 2.493809999999999916e-01 2.530850000000000044e-01 -6.555010000000000003e-01 -1.594750000000000056e-01 -4.597689999999999833e-01 -2.173120000000000052e-01 -1.232736999999999972e+00 5.816459999999999964e-01 -3.883320000000000105e-01 -8.416169999999999485e-01 -4.350280000000000258e-01 8.150939999999999852e-01 -3.569470000000000143e-01 -3.744060000000000166e-01 1.076249999999999984e-01 -4.321470000000000034e-01 -1.384139999999999926e+00 -4.661499999999999672e-02 9.718660000000000077e-01 5.393670000000000408e-01 5.367539999999999534e-01 5.341160000000000352e-01 -7.396800000000000597e-02 -4.313370000000000259e-01 4.166699999999999848e-01 -7.940420000000000256e-01 2.720879999999999965e-01 6.199459999999999971e-01 2.112791000000000086e+00 -1.099682999999999966e+00 -1.138100000000000049e-02 -1.711370000000000113e-01 2.193289999999999962e-01 3.572259999999999880e-01 5.463200000000000001e-02 -6.445130000000000026e-01 5.255530000000000479e-01 -8.378299999999999637e-02 -5.099700000000000344e-01 4.940300000000000247e-01 -5.559999999999999621e-04 1.029980000000000062e-01 -3.747340000000000115e-01 1.162799999999999945e-01 1.833859999999999935e-01 2.245219999999999994e-01 1.357695000000000096e+00 7.331000000000000016e-02 -9.693469999999999587e-01 -3.302950000000000053e-01 8.852899999999999658e-02 -1.422259999999999913e-01 -7.605589999999999851e-01 -4.698200000000000293e-02 7.557400000000000229e-02 -4.188100000000000156e-02 8.380269999999999664e-01 1.206863999999999937e+00 -5.506440000000000223e-01 -1.621869999999999978e-01 5.735679999999999668e-01 5.762009999999999632e-01 6.351040000000000019e-01 -4.178660000000000152e-01 -4.012899999999999801e-02 -5.208100000000000229e-02 -8.092499999999999694e-02 1.141513999999999918e+00 4.552309999999999968e-01 -2.004390000000000061e-01 3.115100000000000161e-02 6.144560000000000022e-01 1.002200000000000035e-01 8.145700000000000163e-02 -2.444000000000000061e-01 -1.054609999999999992e-01 1.592250000000000054e-01 1.570469999999999922e-01 6.241000000000000020e-02 1.194174000000000069e+00 1.605729999999999935e-01 -4.269629999999999814e-01 -1.313840000000000008e-01 -1.741040000000000088e-01 -1.492020000000000013e-01 -4.955950000000000077e-01 1.518160000000000065e-01 2.587300000000000016e-02 3.214679999999999760e-01 -6.662120000000000264e-01 -8.589299999999999713e-01 3.370999999999999865e-03 -6.549230000000000329e-01 1.269379999999999953e-01 -4.511200000000000210e-01 -6.542050000000000365e-01 -3.098150000000000071e-01 -2.584540000000000171e-01 -6.797009999999999996e-01 -5.644890000000000185e-01 9.023090000000000277e-01 -1.503359999999999974e-01 -2.281970000000000109e-01 -5.587799999999999712e-02 2.365970000000000018e-01 5.533500000000000085e-01 1.467310000000000003e-01 1.506079999999999919e-01 5.578999999999999931e-02 8.732450000000000490e-01 1.244709999999999983e-01 7.272099999999999398e-02 -3.540300000000000114e-01 -8.896400000000000141e-02 -5.225229999999999597e-01 -3.178999999999999881e-02 -1.230139999999999983e-01 5.063000000000000139e-02 2.369620000000000060e-01 1.264079999999999926e-01 5.695449999999999680e-01 -2.004219999999999891e-01 8.582700000000000051e-02 -2.845119999999999871e-01 -4.890470000000000095e-01 -1.711999999999999980e-03 -9.490000000000000172e-03 1.373153000000000068e+00 -1.205149999999999971e-01 9.315039999999999987e-01 4.718640000000000057e-01 2.754759999999999986e-01 6.254070000000000462e-01 2.571249999999999925e-01 -5.872000000000000136e-02 -2.398939999999999961e-01 -4.989549999999999819e-01 7.417799999999999394e-02 3.952860000000000262e-01 5.356090000000000018e-01 -1.032669999999999977e-01 5.905639999999999779e-01 4.127120000000000233e-01 -1.032399999999999984e-02 2.738880000000000203e-01 2.986230000000000273e-01 -1.123519999999999935e-01 2.218110000000000082e-01 5.527819999999999956e-01 -3.444209999999999772e-01 -1.453010000000000135e-01 2.108019999999999894e-01 -1.072720000000000062e-01 5.222869999999999457e-01 8.401899999999999646e-02 7.578219999999999956e-01 -2.754789999999999739e-01 -3.769299999999999873e-01 1.824300000000000088e-01 -1.201669999999999960e-01 -2.950070000000000192e-01 -5.130799999999999944e-02 2.383929999999999938e-01 6.027609999999999912e-01 -1.120249999999999996e-01 -6.382699999999999485e-02 3.853230000000000266e-01 9.719300000000000161e-02 -6.411839999999999762e-01 2.077400000000000080e-01 1.874679999999999958e-01 -2.697700000000000098e-01 2.959590000000000276e-01 -6.319360000000000532e-01 -2.099399999999999877e-01 -4.246079999999999854e-01 5.340890000000000359e-01 3.245739999999999736e-01 3.783130000000000104e-01 2.349299999999999999e-01 1.795700000000000074e-01 -4.065239999999999965e-01 7.760999999999999670e-03 -1.278890000000000027e-01 1.482060000000000044e-01 6.828300000000000480e-01 2.692640000000000033e-01 5.818929999999999936e-01 1.310070000000000123e-01 -3.217220000000000080e-01 5.040919999999999845e-01 6.726010000000000044e-01 3.322080000000000033e-01 -2.359030000000000016e-01 1.148330000000000045e-01 6.778509999999999813e-01 1.760249999999999870e-01 4.016009999999999858e-01 8.302129999999999788e-01 -4.859669999999999823e-01 5.728299999999999503e-01 -1.769999999999999907e-01 3.320399999999999741e-02 1.113112000000000101e+00 4.004550000000000054e-01 -3.059410000000000185e-01 5.843169999999999753e-01 5.263269999999999893e-01 4.255669999999999731e-01 -3.720109999999999806e-01 -3.320020000000000193e-01 3.865500000000000047e-01 4.808879999999999821e-01 -2.628550000000000053e-01 4.039600000000000135e-02 4.184559999999999946e-01 9.267799999999999649e-02 -4.732120000000000215e-01 1.351970000000000116e-01 -7.210290000000000310e-01 -3.383510000000000129e-01 -3.964800000000000268e-02 3.231669999999999821e-01 -7.141599999999999338e-02 2.690219999999999834e-01 -4.036440000000000028e-01 1.894309999999999883e-01 7.338630000000000431e-01 3.383229999999999849e-01 7.546810000000000462e-01 -1.025967000000000073e+00 -4.104499999999999815e-01 -2.902089999999999947e-01 -5.382019999999999582e-01 -1.961420000000000108e-01 -1.784439999999999915e-01 3.509470000000000089e-01 -2.309399999999999994e-02 -5.486010000000000053e-01 4.437389999999999946e-01 6.989099999999999480e-02 3.376970000000000249e-01 -6.660199999999999454e-02 -8.994199999999999418e-02 -1.326299999999999979e-01 3.705860000000000265e-01 2.348649999999999904e-01 1.566230000000000122e-01 9.011099999999999666e-02 -1.307409999999999961e-01 3.400999999999999943e-03 5.845099999999999740e-01 -1.802650000000000086e-01 3.922510000000000163e-01 -1.286460000000000103e-01 -7.020800000000000374e-01 4.957139999999999880e-01 3.386620000000000186e-01 4.768049999999999788e-01 1.726320000000000077e-01 -1.031725999999999921e+00 1.081730000000000053e-01 -2.213229999999999920e-01 -6.506560000000000121e-01 -2.386570000000000080e-01 -2.917799999999999838e-01 1.504479999999999984e-01 -1.132676999999999934e+00 -1.252620000000000122e-01 6.413130000000000219e-01 3.268269999999999786e-01 3.796299999999999675e-02 -1.053587000000000051e+00 -7.695070000000000521e-01 3.442060000000000120e-01 6.200999999999999845e-01 1.794409999999999894e-01 -1.238049999999999984e-01 2.082340000000000024e-01 3.583599999999999980e-02 5.498079999999999634e-01 -3.716240000000000099e-01 -5.222099999999999520e-01 6.323229999999999684e-01 -4.595199999999999840e-01 -5.080390000000000184e-01 6.056780000000000497e-01 1.783480000000000065e-01 9.168300000000000061e-02 -4.060540000000000260e-01 1.184930000000000011e-01 -9.865799999999999570e-02 1.970200000000000076e-02 9.988700000000000356e-01 -8.877789999999999848e-01 -5.796660000000000146e-01 -2.103899999999999867e-02 -6.314549999999999885e-01 5.107099999999999834e-02 4.172890000000000210e-01 -1.527419999999999889e-01 3.994000000000000328e-02 -2.447759999999999936e-01 -2.731450000000000267e-01 5.857500000000000207e-02 1.252699999999999994e-02 -2.937370000000000259e-01 5.002029999999999532e-01 -5.315099999999999686e-02 -2.726759999999999740e-01 4.919660000000000144e-01 -3.256169999999999898e-01 -4.953029999999999933e-01 1.717110000000000025e-01 4.024900000000000144e-01 -5.732089999999999685e-01 -3.955850000000000199e-01 3.851109999999999811e-01 -3.905129999999999990e-01 -2.625563999999999787e+00 -5.064830000000000165e-01 -1.320454999999999934e+00 -8.502659999999999663e-01 -3.266390000000000127e-01 8.219000000000000611e-03 -1.421173000000000020e+00 -2.107469999999999899e-01 3.535019999999999829e-01 -6.400590000000000446e-01 2.648061000000000220e+00 5.012099999999999889e-02 4.518199999999999994e-02 -7.029830000000000245e-01 -1.700425000000000075e+00 -1.567968999999999946e+00 -2.218249999999999944e-01 -6.145150000000000334e-01 -4.992260000000000031e-01 -9.104109999999999703e-01 2.106593999999999856e+00 5.440329999999999888e-01 -4.046580000000000177e-01 -2.653590000000000115e-01 -1.372106000000000048e+00 -1.057620000000000005e+00 1.718523000000000023e+00 8.270629999999999926e-01 5.058289999999999731e-01 -5.959480000000000333e-01 -3.764759999999999773e-01 1.629847999999999963e+00 2.140320000000000000e-01 1.314105000000000079e+00 -1.243044000000000038e+00 1.003149999999999986e+00 -1.509079000000000059e+00 7.638200000000000545e-01 9.405900000000000372e-01 -4.809459999999999846e-01 8.149030000000000440e-01 5.797550000000000203e-01 -7.646589999999999776e-01 1.504953999999999903e+00 -2.425727000000000189e+00 -6.432029999999999692e-01 -6.320029999999999815e-01 1.184326999999999908e+00 -1.146484000000000059e+00 -1.626229999999999898e-01 -2.003010000000000068e-01 1.602824000000000026e+00 1.285161999999999916e+00 3.866579999999999906e+00 1.879115000000000091e+00 -4.794720000000000093e-01 2.036779999999999979e-01 1.512200999999999906e+00 3.254920000000000035e-01 -9.552779999999999605e-01 2.105954999999999799e+00 -2.207841000000000165e+00 1.472680999999999907e+00 8.181270000000000486e-01 -5.780920000000000503e-01 5.754200000000000426e-01 6.538589999999999680e-01 2.729900000000000104e-01 2.301960999999999924e+00 7.286230000000000206e-01 -5.257300000000000167e-02 -9.256130000000000191e-01 -1.921883000000000008e+00 -2.004110000000000058e-01 -7.476399999999999713e-01 1.342851999999999935e+00 1.119151999999999925e+00 -5.252390000000000114e-01 1.025396999999999892e+00 -1.598670000000000035e+00 1.314518999999999993e+00 -2.835599999999999898e+00 7.906549999999999967e-01 5.815240000000000409e-01 -4.987019999999999786e-01 5.892749999999999932e-01 -5.536590000000000122e-01 -2.135740999999999890e+00 1.552569000000000088e+00 2.545229999999999992e-01 1.105844999999999967e+00 -2.944542999999999910e+00 7.394599999999999784e-02 -6.654459999999999820e-01 -1.335020000000000095e+00 -9.664859999999999562e-01 -1.993405000000000094e+00 -4.806099999999999817e-01 9.582610000000000294e-01 -1.783387999999999973e+00 1.562991000000000019e+00 -2.198640000000000150e+00 2.003359999999999863e-01 1.358112999999999904e+00 9.563800000000000079e-02 1.657877999999999963e+00 -4.280649999999999733e-01 -1.719489000000000045e+00 -1.543749000000000038e+00 5.029879999999999907e-01 -1.396914999999999907e+00 1.291150000000000075e-01 -9.261260000000000048e-01 9.405810000000000004e-01 1.946120000000000072e+00 4.605589999999999962e-01 -4.469900000000000262e-02 1.473389999999999977e-01 3.142599000000000142e+00 -9.659700000000000231e-02 -1.927459999999999951e+00 1.975511999999999935e+00 1.303330000000000100e+00 8.420659999999999812e-01 1.494456000000000007e+00 2.196039999999999937e-01 2.226319999999999966e-01 -2.236610999999999905e+00 -1.728400000000000075e-02 -1.224061000000000066e+00 -2.711860000000000159e+00 5.736019999999999452e-01 -4.677171000000000411e+00 3.557199999999999945e-02 -2.663730000000000153e+00 1.056427000000000005e+00 1.956218000000000012e+00 -5.055570000000000341e-01 -8.688960000000000017e-01 -6.673980000000000468e-01 -8.900470000000000326e-01 -2.069069999999999965e+00 -1.470355000000000079e+00 5.219700000000000034e-02 4.781230000000000202e-01 -4.634730000000000238e-01 -1.826710000000000056e+00 4.890780000000000127e-01 -5.237579999999999458e-01 3.485440000000000205e-01 -1.426760000000000028e+00 6.114300000000000290e-01 -3.786309999999999953e-01 -1.050024000000000068e+00 -1.763260999999999967e+00 1.064570999999999934e+00 -4.694240000000000079e-01 -2.298400000000000096e-02 5.773970000000000491e-01 -5.531850000000000378e-01 -3.618580000000000130e-01 5.744719999999999827e-01 -8.361799999999999788e-02 -9.755930000000000435e-01 1.439051999999999998e+00 4.683689999999999798e-01 5.078650000000000109e-01 4.760600000000000248e-02 4.023999999999999799e-03 3.476620000000000266e-01 -1.180031000000000052e+00 -9.799800000000000177e-02 -9.047960000000000447e-01 1.150349999999999984e-01 -7.978340000000000432e-01 7.266200000000000436e-02 7.528200000000000169e-02 3.895310000000000161e-01 1.091498000000000079e+00 1.622599999999999876e-01 -8.627240000000000464e-01 8.763879999999999448e-01 4.052180000000000226e-01 1.009538000000000046e+00 1.643489999999999951e-01 -2.978669999999999929e-01 -9.572359999999999758e-01 5.049270000000000147e-01 -1.215332999999999997e+00 -8.634239999999999693e-01 9.445299999999999530e-02 -1.116089000000000109e+00 -4.244829999999999992e-01 -2.574399999999999952e-02 1.086081999999999992e+00 -3.573910000000000142e-01 -8.597730000000000095e-01 -1.076626000000000083e+00 -3.076360000000000205e-01 5.093520000000000270e-01 -6.708690000000000486e-01 1.712899999999999978e-01 5.860429999999999806e-01 3.202450000000000019e-01 8.829759999999999831e-01 -8.106240000000000112e-01 3.466620000000000257e-01 -2.766379999999999950e-01 6.092419999999999503e-01 8.260299999999999587e-02 -9.942450000000000454e-01 1.728863999999999956e+00 9.124670000000000281e-01 9.529119999999999813e-01 7.621930000000000094e-01 -5.520230000000000414e-01 2.700230000000000130e-01 -5.727999999999999758e-02 4.753430000000000155e-01 2.183670000000000055e-01 6.968699999999999894e-02 1.321523999999999921e+00 7.584840000000000471e-01 -1.424903000000000031e+00 -2.123410000000000020e-01 1.756904999999999939e+00 2.361095000000000166e+00 2.037136999999999976e+00 5.618149999999999533e-01 5.794519999999999671e-01 -5.962619999999999587e-01 -2.696479999999999988e-01 -2.578791999999999973e+00 -1.747214000000000045e+00 -1.397259999999999891e-01 7.306110000000000104e-01 1.259549999999999947e+00 -2.594510000000000094e+00 8.211699999999999555e-02 -9.065490000000000492e-01 -1.791909999999999892e-01 1.322352999999999890e+00 -1.451152999999999915e+00 2.272899999999999920e-02 1.089263000000000092e+00 -1.752431999999999990e+00 1.665262999999999938e+00 7.240339999999999554e-01 1.025924999999999976e+00 -1.982559999999999878e-01 2.446210000000000051e-01 -4.780929999999999902e-01 8.658789999999999543e-01 -5.371310000000000251e-01 -4.241829999999999767e-01 2.242270000000000096e-01 4.533440000000000247e-01 -1.325355000000000061e+00 -4.669349999999999890e-01 2.859490000000000087e-01 6.197620000000000351e-01 1.129564999999999930e+00 9.783899999999999819e-01 -4.445040000000000102e-01 1.866370000000000084e+00 -1.048254000000000019e+00 1.684509000000000034e+00 -3.390870000000000273e-01 2.142610000000000070e-01 -1.369250000000000078e+00 -4.420560000000000045e-01 2.909129999999999772e-01 -8.658749999999999503e-01 -1.185586999999999946e+00 -2.313580000000000081e-01 -4.876159999999999939e-01 1.814719999999999944e-01 8.412370000000000125e-01 -1.745997999999999939e+00 1.028359999999999969e-01 -9.070899999999999797e-02 8.027490000000000459e-01 -7.253600000000000325e-02 2.687860000000000249e-01 -1.427187999999999901e+00 8.198140000000000427e-01 3.843119999999999870e-01 2.046994999999999898e+00 1.440814999999999957e+00 -7.184220000000000050e-01 5.296030000000000459e-01 1.085396999999999945e+00 1.207430000000000031e-01 -1.184514999999999985e+00 -1.608479999999999910e-01 -5.515170000000000350e-01 5.289499999999999758e-02 -1.451000999999999985e+00 -2.411609999999999865e-01 1.293738999999999972e+00 -1.478129999999999999e-01 7.965550000000000130e-01 9.021679999999999700e-01 5.034380000000000521e-01 1.053079000000000098e+00 4.029900000000000149e-01 -7.429409999999999625e-01 5.589309999999999556e-01 1.585417999999999994e+00 2.553850000000000176e+00 -7.684239999999999959e-01 -2.819120999999999988e+00 5.320810000000000262e-01 7.783099999999999463e-01 -6.475670000000000037e-01 1.255460000000000020e+00 -6.839640000000000164e-01 -6.820469999999999589e-01 1.320167000000000090e+00 8.393159999999999510e-01 -1.746410000000000018e+00 5.878300000000000192e-02 -3.597440000000000082e-01 -4.733539999999999970e-01 -1.028772000000000020e+00 2.107590000000000019e-01 6.639100000000000557e-02 4.562999999999999695e-02 9.868980000000000530e-01 1.009122000000000074e+00 5.746930000000000094e-01 1.295346000000000108e+00 2.305149999999999977e-01 1.148914999999999909e+00 6.817250000000000254e-01 -8.546709999999999585e-01 6.525619999999999754e-01 1.682148999999999894e+00 -2.471460000000000046e-01 -1.468490000000000073e-01 -2.029313999999999840e+00 5.869499999999999718e-01 -7.564910000000000245e-01 2.153680000000000039e-01 -1.514829999999999899e+00 1.196237999999999913e+00 2.375210000000000099e-01 4.424679999999999724e-01 8.002399999999999514e-01 2.073699999999999988e-01 8.843980000000000175e-01 1.086200999999999972e+00 -5.149540000000000228e-01 1.391874000000000056e+00 -1.156263000000000041e+00 -1.110773000000000010e+00 -1.452706999999999971e+00 4.610310000000000241e-01 -3.209239999999999871e-01 5.511899999999999578e-01 1.503609999999999947e-01 1.111045999999999978e+00 1.012871000000000077e+00 4.093800000000000217e-01 8.161410000000000053e-01 5.219829999999999748e-01 1.052278000000000047e+00 3.237260000000000137e-01 5.991039999999999699e-01 -1.048950000000000021e-01 9.499680000000000346e-01 3.448300000000000254e-01 1.489550000000000041e-01 -3.937570000000000237e-01 -3.448229999999999906e-01 1.233640000000000014e-01 2.753840000000000177e-01 -7.728709999999999747e-01 6.098639999999999617e-01 -1.912719999999999976e-01 4.291849999999999832e-01 -1.037330000000000058e-01 -7.343700000000000228e-02 1.668870000000000076e+00 7.463969999999999771e-01 9.248030000000000417e-01 6.449000000000000288e-01 8.299210000000000198e-01 -4.439750000000000085e-01 -5.604000000000000092e-01 7.550900000000000667e-02 -1.941745999999999972e+00 9.789699999999999791e-02 1.253800000000000053e-02 -5.114419999999999522e-01 -5.490159999999999485e-01 6.806309999999999860e-01 7.309210000000000429e-01 -2.123609999999999942e-01 1.184114000000000111e+00 8.737160000000000482e-01 -3.358200000000000074e-02 9.338170000000000082e-01 9.363369999999999749e-01 -4.501000000000000001e-01 1.266410000000000036e-01 1.165478999999999932e+00 -9.975209999999999910e-01 3.758429999999999827e-01 1.312063999999999897e+00 5.219610000000000083e-01 1.330637999999999987e+00 5.171829999999999483e-01 -3.327789999999999915e-01 1.044623000000000079e+00 -2.190262000000000153e+00 1.741946999999999912e+00 6.005770000000000275e-01 -1.635399000000000047e+00 8.979409999999999892e-01 -7.945379999999999665e-01 6.304159999999999764e-01 9.248769999999999492e-01 -1.370810000000000084e-01 -2.518099999999999783e-01 -6.268029999999999990e-01 -1.411140999999999979e+00 -4.267699999999999966e-02 -2.302400000000000002e-01 -7.124479999999999702e-01 -7.373349999999999627e-01 1.498464999999999936e+00 -4.263009999999999855e-01 -1.649486000000000008e+00 8.803000000000000061e-03 -2.569538000000000100e+00 2.836079999999999934e+00 2.137630000000000086e-01 2.649340000000000028e-01 -2.087031000000000081e+00 -1.475143000000000093e+00 -3.116209999999999813e-01 7.710839999999999916e-01 9.124200000000000088e-01 2.849940000000000251e-01 1.068678000000000017e+00 4.522269999999999901e-01 -1.883259999999999934e-01 4.835430000000000006e-01 -4.021410000000000262e-01 1.476023000000000085e+00 -8.971069999999999878e-01 2.299329999999999985e-01 -1.281750000000000111e-01 -9.999710000000000543e-01 -2.958350000000000146e-01 -2.258270000000000000e-01 2.422709999999999864e-01 -1.176147999999999971e+00 5.675590000000000357e-01 -2.374505999999999784e+00 -1.191832999999999920e+00 -2.005820000000000103e-01 -7.503429999999999822e-01 -1.609339999999999937e-01 2.404570000000000041e-01 1.471632000000000051e+00 2.040324000000000026e+00 -6.903970000000000384e-01 -1.933500000000000149e-02 5.383700000000000152e-01 -7.046470000000000233e-01 -2.337180000000000091e-01 -1.098503000000000007e+00 -2.285520000000000052e-01 7.680390000000000272e-01 7.796680000000000277e-01 5.776360000000000383e-01 -2.075969999999999871e+00 -8.273899999999999311e-02 -3.541940000000000088e-01 -5.496259999999999479e-01 -2.232794999999999863e+00 6.729049999999999754e-01 1.626380000000000048e-01 8.383770000000000389e-01 6.720490000000000075e-01 1.837963000000000013e+00 1.356961000000000084e+00 1.123302000000000023e+00 -1.880819999999999992e-01 -1.089914999999999967e+00 3.418570000000000220e-01 -8.046210000000000306e-01 4.445879999999999832e-01 -2.648690000000000211e-01 5.093889999999999807e-01 5.841349999999999598e-01 3.653980000000000006e-01 -1.917439999999999978e-01 -6.431199999999999417e-02 2.202639999999999876e-01 5.742580000000000462e-01 5.525470000000000104e-01 1.784920000000000118e-01 2.933600000000000096e-01 -7.398320000000000451e-01 -1.705702999999999969e+00 -1.652160000000000017e-01 1.202600000000000058e-01 6.471120000000000205e-01 -1.005295999999999967e+00 -1.666080000000000061e-01 -3.912729999999999819e-01 -7.058560000000000390e-01 2.108899999999999941e-01 -1.115526000000000018e+00 -6.103579999999999561e-01 -1.077001000000000097e+00 7.377190000000000136e-01 8.858460000000000223e-01 6.963519999999999710e-01 -1.045589999999999992e-01 -7.834349999999999925e-01 -5.696290000000000520e-01 -1.527290000000000036e-01 1.653385000000000105e+00 -6.277000000000000357e-01 -1.339188999999999963e+00 3.961200000000000276e-01 -7.531529999999999614e-01 1.357399999999999926e-02 -6.286110000000000309e-01 9.553180000000000005e-01 -2.344779999999999920e-01 -2.145720000000000127e-01 -4.783789999999999987e-01 5.807750000000000412e-01 -3.926620000000000110e-01 5.323300000000000254e-02 -7.036900000000000377e-01 1.684509999999999896e-01 -2.881150000000000100e-01 6.647199999999999775e-01 -2.017940000000000011e-01 -8.177140000000000519e-01 -1.309317999999999982e+00 -7.588380000000000125e-01 1.401750999999999969e+00 1.519819000000000031e+00 -5.469929999999999515e-01 7.314009999999999678e-01 2.201176999999999939e+00 8.115799999999999403e-02 -1.762917999999999985e+00 7.851019999999999666e-01 -9.645420000000000105e-01 -8.309969999999999857e-01 -1.431246000000000018e+00 -4.194439999999999835e-01 2.321999999999999897e-01 -1.491033000000000053e+00 -5.442970000000000308e-01 6.101199999999999679e-02 -1.342805999999999944e+00 -1.698020000000000085e-01 1.008578999999999892e+00 -1.156940999999999997e+00 3.088449999999999807e-01 3.987060000000000048e-01 1.166166000000000036e+00 -7.672000000000000000e-03 -2.639059999999999739e-01 8.952899999999999747e-02 4.388670000000000071e-01 2.168051000000000172e+00 8.747089999999999588e-01 -1.048969999999999958e+00 4.860639999999999961e-01 -1.299676000000000053e+00 1.428082999999999991e+00 2.176318000000000197e+00 -1.951457999999999915e+00 4.577800000000000202e-01 6.560699999999999865e-02 -1.435121000000000091e+00 -7.471130000000000271e-01 5.050500000000000128e-02 -5.536090000000000177e-01 1.606779999999999875e-01 4.956100000000000089e-02 -7.138430000000000053e-01 1.100057999999999980e+00 -9.067699999999999649e-01 1.064024999999999999e+00 -2.624009999999999954e-01 6.488159999999999483e-01 -5.376980000000000093e-01 3.612310000000000243e-01 1.210159999999999986e-01 -2.903209999999999957e-01 4.887759999999999883e-01 -3.306749999999999967e-01 -1.188999999999999953e-03 -1.810799999999999910e-01 -3.320859999999999923e-01 -9.550520000000000120e-01 -1.062149999999999928e+00 -4.904029999999999778e-01 -1.254729999999999901e+00 -9.548159999999999981e-01 1.328815000000000079e+00 -1.290132999999999974e+00 -5.695999999999999674e-03 2.667019999999999946e-01 1.143963000000000063e+00 5.397189999999999488e-01 3.760319999999999774e-01 1.123493000000000075e+00 5.477699999999999791e-01 -4.686670000000000003e-01 3.261479999999999935e-01 -8.249480000000000146e-01 -5.696480000000000432e-01 -1.004841000000000095e+00 -4.574799999999999978e-01 3.058649999999999980e-01 -4.384770000000000056e-01 -5.439950000000000063e-01 -1.111180999999999974e+00 1.220946000000000087e+00 -7.815760000000000485e-01 -9.254099999999999826e-02 -1.067850000000000049e-01 7.428789999999999560e-01 -9.320279999999999676e-01 2.043250000000000066e-01 -7.368489999999999762e-01 7.168120000000000047e-01 6.821499999999999786e-02 -5.173680000000000501e-01 1.705507000000000106e+00 -1.346907000000000076e+00 1.706040000000000056e-01 5.965599999999999792e-01 1.338578999999999963e+00 -6.089780000000000193e-01 2.236809999999999909e-01 -1.313960000000000017e+00 -1.942959999999999965e-01 1.303963999999999901e+00 1.659440000000000082e-01 1.827340000000000075e-01 8.461100000000000565e-02 -1.008799999999999975e-01 3.190890000000000115e-01 4.427840000000000109e-01 6.258369999999999767e-01 -6.241860000000000186e-01 1.839048999999999934e+00 -6.056939999999999547e-01 -3.002969999999999806e-01 -1.584433999999999898e+00 2.181950000000000001e-01 1.428757000000000055e+00 2.133180000000000076e-01 -2.469889999999999863e-01 -4.831139999999999879e-01 -9.956509999999999527e-01 -5.372829999999999551e-01 -3.024100000000000052e-02 -4.598059999999999925e-01 -3.294520000000000226e-01 4.729160000000000030e-01 -9.237900000000000278e-02 -5.725890000000000146e-01 6.461400000000000476e-02 8.191599999999999993e-01 1.511379999999999946e-01 -1.946799999999999919e-02 -1.181024999999999991e+00 7.297310000000000185e-01 -9.177140000000000297e-01 7.799499999999999489e-02 -9.110400000000000442e-02 1.508418000000000037e+00 4.671469999999999789e-01 9.106980000000000075e-01 -7.662510000000000154e-01 5.929899999999999755e-02 -4.468349999999999822e-01 7.866950000000000331e-01 4.036719999999999753e-01 3.941049999999999831e-01 -7.585880000000000400e-01 8.405200000000000171e-02 3.460520000000000262e-01 7.272399999999999698e-02 -9.094020000000000437e-01 1.178328000000000042e+00 -6.63