1.006905434289336370e+02 -1.555308110811704392e+00 -1.995218690599489086e+00 -1.555308110811704392e+00 9.162960283595305100e+01 5.439893048965864786e+00 -1.995218690599489086e+00 5.439893048965864786e+00 8.526495126951522252e+01
1.145069502008243632e+02 9.878562742896402682e+00 -1.030368441442410798e+01 9.878562742896402682e+00 1.178693582849465571e+02 -9.623442187220101474e+00 -1.030368441442410798e+01 -9.623442187220101474e+00 1.159421875934473007e+02
9.035342942445539904e+01 -8.902447244971437357e+00 -2.352482574065668430e+01 -8.902447244971437357e+00 1.275450134022938897e+02 -5.097418073759764745e+00 -2.352482574065668430e+01 -5.097418073759764745e+00 7.562543624952371601e+01
8.007884729895465625e+01 4.469959409799131866e-01 -2.176898764227984628e+01 4.469959409799131866e-01 7.861759854678746251e+01 -1.487507386061793646e+01 -2.176898764227984628e+01 -1.487507386061793646e+01 9.941047069114233636e+01
1.226821730920292310e+02 -1.350569704015000383e+01 -2.452343369390968419e+00 -1.350569704015000383e+01 9.252473598414516687e+01 -4.874966263982740244e+00 -2.452343369390968419e+00 -4.874966263982740244e+00 1.250072177237602773e+02
6.780524226208014227e+01 -5.144067331004584354e+00 -1.697595478322352847e+01 -5.144067331004584354e+00 1.133857987858793166e+02 2.137363399831101418e+01 -1.697595478322352847e+01 2.137363399831101418e+01 8.604552981964133096e+01
1.173691508058861643e+02 1.544680069023511670e+01 -1.175432890118296214e+01 1.544680069023511670e+01 1.324977759811110047e+02 -1.981299997841529503e+01 -1.175432890118296214e+01 -1.981299997841529503e+01 1.036915980922572800e+02
9.973411477351565679e+01 5.140025346431893460e+00 2.278181387067677832e+01 5.140025346431893460e+00 1.073385143375372479e+02 -1.712032496160810524e+01 2.278181387067677832e+01 -1.712032496160810524e+01 9.599765668176068800e+01
1.037331116514567952e+02 -4.837684900394628507e+00 -6.884117913168092961e+00 -4.837684900394628507e+00 8.326550038330432812e+01 -1.741424856918223796e+01 -6.884117913168092961e+00 -1.741424856918223796e+01 1.035977289446515073e+02
1.108470520521521223e+02 -9.774564857479054680e+00 1.134161849993140336e+01 -9.774564857479054680e+00 9.465838075816938613e+01 -1.055561893520193451e+01 1.134161849993140336e+01 -1.055561893520193451e+01 1.095098684499866835e+02
6.463114310628564851e+01 1.224250553204464254e+01 -5.809996177545296847e-01 1.224250553204464254e+01 9.673291745191298219e+01 1.454928990405906752e+01 -5.809996177545296847e-01 1.454928990405906752e+01 1.090432332192594629e+02
9.312057206291945022e+01 -1.143605828065332908e+01 -4.470197173597525442e+00 -1.143605828065332908e+01 1.007674837940938062e+02 1.776166903139492348e+01 -4.470197173597525442e+00 1.776166903139492348e+01 8.720562694476322463e+01
1.386653689114402255e+02 6.488288741602476151e+00 1.208111146569508598e+01 6.488288741602476151e+00 8.957151939705829591e+01 -4.378182583619213419e-01 1.208111146569508598e+01 -4.378182583619213419e-01 1.000001724639180622e+02
1.052496167103706881e+02 -4.466440505582906617e+00 3.364676350758874435e+01 -4.466440505582906617e+00 1.019726609353911186e+02 -1.021157471892643720e+01 3.364676350758874435e+01 -1.021157471892643720e+01 9.414328926532955677e+01
1.490211711504722132e+02 -7.415377344298687001e-01 -7.739544507028481846e+00 -7.415377344298687001e-01 1.106415290248207128e+02 1.743093958782946595e+00 -7.739544507028481846e+00 1.743093958782946595e+00 1.066767701338482510e+02
8.841769923621397709e+01 -6.563564760173881574e+00 -2.424767524053281775e+01 -6.563564760173881574e+00 8.599597984405610873e+01 1.713801458820858548e+00 -2.424767524053281775e+01 1.713801458820858548e+00 9.970196910797284318e+01
1.356698303682393316e+02 3.691520733858580927e-01 -9.748125523097689538e+00 3.691520733858580927e-01 1.001897653167571036e+02 6.944605023479417660e-01 -9.748125523097689538e+00 6.944605023479417660e-01 1.169868741708289832e+02
1.138187666627540153e+02 -4.241896374380019097e+00 -8.015350513165024893e+00 -4.241896374380019097e+00 9.017406041494727731e+01 -3.821962708933261865e+01 -8.015350513165024893e+00 -3.821962708933261865e+01 6.742382157669716491e+01
8.396866304067349063e+01 -7.274145648052906532e-01 7.066910721373070636e+00 -7.274145648052906532e-01 1.230252187003514734e+02 -1.844623855972969295e+01 7.066910721373070636e+00 -1.844623855972969295e+01 8.428317699318849066e+01
8.720515141716644791e+01 -6.825437807724560102e+00 -2.370552622743580251e+00 -6.825437807724560102e+00 1.137594208186749682e+02 8.610853722621560902e-01 -2.370552622743580251e+00 8.610853722621560902e-01 9.063370539000173665e+01
9.457663756428168256e+01 -5.372748552299520419e+00 -1.504440923783383788e+01 -5.372748552299520419e+00 9.445076540941212784e+01 4.682662903842020441e+00 -1.504440923783383788e+01 4.682662903842020441e+00 1.191718759253062245e+02
9.935393045988433869e+01 -1.135802420202055885e+01 -2.096934043552258764e+00 -1.135802420202055885e+01 8.757140277221189706e+01 -5.175166835834462908e+00 -2.096934043552258764e+00 -5.175166835834462908e+00 8.319050968129100454e+01
1.007979651130478516e+02 6.309633023489547021e+00 1.312498964616221819e+01 6.309633023489547021e+00 9.001756428284464562e+01 4.307661841015680615e+00 1.312498964616221819e+01 4.307661841015680615e+00 8.765885229726106331e+01
6.797395945342022117e+01 -7.268914844488247873e+00 5.151342903235427428e+00 -7.268914844488247873e+00 8.089033514287190485e+01 9.178063040069265099e+00 5.151342903235427428e+00 9.178063040069265099e+00 9.943529323169462941e+01
1.071879147476347498e+02 -1.193911892529444607e+01 -8.488785788526303833e+00 -1.193911892529444607e+01 1.409450482104377897e+02 -1.078948340730184974e+01 -8.488785788526303833e+00 -1.078948340730184974e+01 1.149320243195923865e+02
1.126011782511805421e+02 -2.923305901248953731e+00 -2.001519431256918935e+01 -2.923305901248953731e+00 1.302434423030222206e+02 -1.164115333314762069e+01 -2.001519431256918935e+01 -1.164115333314762069e+01 1.213543573835204796e+02
7.617381467413865437e+01 -3.426176334851356309e-01 2.947239205195250378e+01 -3.426176334851356309e-01 1.188198428454047075e+02 8.312840577715059354e+00 2.947239205195250378e+01 8.312840577715059354e+00 9.641830839387860408e+01
1.173212651768897103e+02 8.787512224827985108e+00 -2.676359664961422880e+01 8.787512224827985108e+00 1.071919567322074300e+02 -1.684908402040072062e+01 -2.676359664961422880e+01 -1.684908402040072062e+01 8.565887833069369606e+01
1.326392929939148644e+02 -2.823302447644617796e+00 2.144344144951936926e+00 -2.823302447644617796e+00 1.021900245998825341e+02 4.392067989445398446e+00 2.144344144951936926e+00 4.392067989445398446e+00 1.047324804488646635e+02
1.189000167982230209e+02 3.344861115800754625e+00 9.877231265625397327e+00 3.344861115800754625e+00 8.589550086285497343e+01 -9.784931359089014791e+00 9.877231265625397327e+00 -9.784931359089014791e+00 6.272670263391282219e+01
8.720120453811310313e+01 7.382090412523587553e-01 -2.473471060516220987e+01 7.382090412523587553e-01 1.249690328577382701e+02 -3.923911070408456769e+00 -2.473471060516220987e+01 -3.923911070408456769e+00 1.194739786075450922e+02
1.002057905967688214e+02 3.417283968791436255e+00 -8.305897874801967617e+00 3.417283968791436255e+00 6.173722481051813560e+01 -2.225925659456738614e+01 -8.305897874801967617e+00 -2.225925659456738614e+01 1.000034060515762206e+02
1.404735625982233387e+02 -1.469641814250500644e+01 -9.009964034605010497e+00 -1.469641814250500644e+01 9.766580749128998207e+01 -1.047820304244498857e+01 -9.009964034605010497e+00 -1.047820304244498857e+01 1.130977717205053352e+02
1.087946749444188299e+02 -1.123372128822039784e+01 1.582080314510820596e-01 -1.123372128822039784e+01 1.144457022463581808e+02 -2.377899524113941254e+01 1.582080314510820596e-01 -2.377899524113941254e+01 1.217854707027677250e+02
6.764346777365315688e+01 -4.672724377069169321e+00 -4.403670862807004482e+00 -4.672724377069169321e+00 7.340643427187620773e+01 -2.101356450202379045e-01 -4.403670862807004482e+00 -2.101356450202379045e-01 5.796215387790405771e+01
1.266646691623618466e+02 -4.657222177413908426e+00 -2.800857545076264610e-01 -4.657222177413908426e+00 6.361337139088212922e+01 -4.018636167688455885e+00 -2.800857545076264610e-01 -4.018636167688455885e+00 6.866856261404718964e+01
8.174966106302595392e+01 4.720134478468847483e+00 -9.940523988757767881e+00 4.720134478468847483e+00 1.167912896702704302e+02 3.238067128114298754e+01 -9.940523988757767881e+00 3.238067128114298754e+01 9.827400728758074422e+01
1.190571786689611713e+02 4.791796487304669228e+00 2.818157239047380713e+01 4.791796487304669228e+00 9.248664622364250931e+01 9.617545645019941469e-01 2.818157239047380713e+01 9.617545645019941469e-01 1.210340419943246673e+02
9.525721266080343241e+01 -1.671336844427766977e+00 2.496324916817811257e+01 -1.671336844427766977e+00 9.613108972541915875e+01 -8.428631547532729584e+00 2.496324916817811257e+01 -8.428631547532729584e+00 1.014234265611019907e+02
1.054423955981081917e+02 -4.526261877258729527e+00 2.416773905151289981e+00 -4.526261877258729527e+00 1.229175592524388492e+02 2.098550837381334944e+01 2.416773905151289981e+00 2.098550837381334944e+01 1.199057101126681317e+02
1.353915040658397970e+02 -3.729610494361230710e+00 -1.697362469799927354e+01 -3.729610494361230710e+00 1.036171304706004150e+02 -4.857276637382258677e+00 -1.697362469799927354e+01 -4.857276637382258677e+00 9.951717908386136457e+01
8.693966435988018304e+01 -8.021104397086148197e+00 1.159089006616722095e+01 -8.021104397086148197e+00 1.158750430967809706e+02 1.126567674272449437e+01 1.159089006616722095e+01 1.126567674272449437e+01 1.086940057521789811e+02
8.065104965616862387e+01 1.052675441007695722e+00 -3.811353688248940497e+00 1.052675441007695722e+00 1.040988399261458000e+02 -1.863041039796535259e+01 -3.811353688248940497e+00 -1.863041039796535259e+01 8.627387817161850592e+01
9.770874763327987012e+01 9.194611400437457505e+00 -6.986403899237006776e+00 9.194611400437457505e+00 1.027202854230598774e+02 -1.259843793823981706e+01 -6.986403899237006776e+00 -1.259843793823981706e+01 6.242036775606254650e+01
1.072754118254435838e+02 -8.127717684285826749e+00 -1.622309949199012724e+00 -8.127717684285826749e+00 1.004102199106276174e+02 -1.825003587329531740e+01 -1.622309949199012724e+00 -1.825003587329531740e+01 9.910275678326136983e+01
1.112100222667797453e+02 7.324789337110737542e+00 9.213822715347657066e+00 7.324789337110737542e+00 7.745616994439454572e+01 -2.090276657197238652e+00 9.213822715347657066e+00 -2.090276657197238652e+00 7.575302030374172091e+01
1.176614100668715395e+02 -1.337040943886406152e+00 -1.490008661220893948e+01 -1.337040943886406152e+00 1.319122588511870049e+02 -1.087555390232032337e+01 -1.490008661220893948e+01 -1.087555390232032337e+01 9.129578246300847866e+01
1.216366781177330125e+02 6.830811269568253685e+00 1.029365078213190010e+01 6.830811269568253685e+00 8.664959252584002058e+01 2.581258900879962237e+00 1.029365078213190010e+01 2.581258900879962237e+00 9.602547504617275820e+01
1.264782623444213101e+02 -1.646276540077084682e+00 1.237874418852415737e+01 -1.646276540077084682e+00 1.360754554082987511e+02 1.560153737022965181e+01 1.237874418852415737e+01 1.560153737022965181e+01 1.350017140947533960e+02
1.166883854983257010e+02 -1.004124073375728443e+01 -1.592080659871253978e+01 -1.004124073375728443e+01 7.881394389150086965e+01 -8.253732497434418391e+00 -1.592080659871253978e+01 -8.253732497434418391e+00 8.095999993580123544e+01
1.288277966473868901e+02 5.794256214091642931e+00 1.777997684387122856e-01 5.794256214091642931e+00 8.329113132077115722e+01 -8.550271506790879883e+00 1.777997684387122856e-01 -8.550271506790879883e+00 1.199505999178048512e+02
1.021892162029679980e+02 -6.597802747142554658e+00 -1.085011317589221314e+00 -6.597802747142554658e+00 1.179572833375925001e+02 -1.424680679974276565e+01 -1.085011317589221314e+00 -1.424680679974276565e+01 1.286244610470006933e+02
9.721082268668405391e+01 7.200153553992827860e+00 -1.885980491065546971e+01 7.200153553992827860e+00 1.339589771805185308e+02 -2.562851227608332394e+01 -1.885980491065546971e+01 -2.562851227608332394e+01 1.153855825414079561e+02
9.878139523335262595e+01 -7.278520501943348542e+00 1.613488912278611309e+01 -7.278520501943348542e+00 8.919333229933349116e+01 1.203712516299227531e+01 1.613488912278611309e+01 1.203712516299227531e+01 9.594658501786575755e+01
1.233174779613368486e+02 -1.525635188772186623e+00 -2.774717793080875339e+01 -1.525635188772186623e+00 6.403659095202269214e+01 -1.414304667812381133e+01 -2.774717793080875339e+01 -1.414304667812381133e+01 1.039461955675771208e+02
1.207722164995336698e+02 -1.487830744827608909e+00 9.450635458547655077e+00 -1.487830744827608909e+00 1.191222783969613346e+02 -5.860925183161199925e+00 9.450635458547655077e+00 -5.860925183161199925e+00 1.008846537939421495e+02
1.011265071296680844e+02 1.095919920659518176e+01 8.905775938148947191e+00 1.095919920659518176e+01 1.187975881538750684e+02 5.347212720352050752e+00 8.905775938148947191e+00 5.347212720352050752e+00 1.142383246613993037e+02
1.418763214559857317e+02 8.196193658223175360e-01 -3.559181403672719401e+00 8.196193658223175360e-01 1.467496233733797055e+02 -8.684988474960677607e+00 -3.559181403672719401e+00 -8.684988474960677607e+00 1.162996892407118992e+02
1.086270514665513502e+02 -5.914136721241680661e-01 -6.725957434476689478e+00 -5.914136721241680661e-01 1.340679205529424678e+02 -6.530325381158459841e+00 -6.725957434476689478e+00 -6.530325381158459841e+00 1.152000792259012911e+02
4.845925793646949842e+01 -1.329789148035402491e+01 1.744615647092665611e+01 -1.329789148035402491e+01 1.199842197188976911e+02 -6.693859321693557796e+00 1.744615647092665611e+01 -6.693859321693557796e+00 1.068733056896003717e+02
1.434634423630224944e+02 2.055230273314026412e+00 -1.862560756923780048e+01 2.055230273314026412e+00 8.319060478681035420e+01 3.929332085011830511e+00 -1.862560756923780048e+01 3.929332085011830511e+00 9.632210916104855869e+01
8.483260157851636052e+01 -6.764808039134199369e+00 -1.712189420267750251e+01 -6.764808039134199369e+00 1.076409498890938465e+02 -7.609868131384628365e-01 -1.712189420267750251e+01 -7.609868131384628365e-01 9.446465081523831486e+01
1.208561946731262822e+02 -9.882985149546524184e+00 -6.334550669561192393e+00 -9.882985149546524184e+00 1.291573848247200544e+02 3.622906856918164209e+01 -6.334550669561192393e+00 3.622906856918164209e+01 1.117535503099074532e+02
9.597597262334720369e+01 -1.515863096658210907e+01 1.368045343196927988e+01 -1.515863096658210907e+01 1.067739204218718498e+02 -3.552428911798342082e+00 1.368045343196927988e+01 -3.552428911798342082e+00 7.646255503090779371e+01
1.074507388503789969e+02 1.950186227183746679e+00 -9.997777511410939510e+00 1.950186227183746679e+00 1.200880273932763345e+02 1.548779116907816800e+01 -9.997777511410939510e+00 1.548779116907816800e+01 1.094899913964409848e+02
8.991033280976913034e+01 -1.057425961699599171e+01 8.415649644140438923e+00 -1.057425961699599171e+01 8.229494855826177968e+01 -1.576526152180346507e+01 8.415649644140438923e+00 -1.576526152180346507e+01 7.395100847571684710e+01
8.800774689502378578e+01 6.100305775383847440e+00 -4.083555195201836341e+01 6.100305775383847440e+00 1.413288465338046933e+02 5.890550552441038867e+00 -4.083555195201836341e+01 5.890550552441038867e+00 9.241041914987754069e+01
1.129570631046160258e+02 -4.419077956942907837e-01 -1.984728551814364650e+01 -4.419077956942907837e-01 1.137751607821286228e+02 -1.702983205993951188e+01 -1.984728551814364650e+01 -1.702983205993951188e+01 1.245815254191164172e+02
6.655260746662345639e+01 -8.393062083293050257e-01 -2.313156441811372144e+00 -8.393062083293050257e-01 7.217966817768473220e+01 -8.838488783203565902e+00 -2.313156441811372144e+00 -8.838488783203565902e+00 5.752985173966487054e+01
9.934128142580981091e+01 -3.178569115204290974e+00 -2.326861147150777498e+01 -3.178569115204290974e+00 1.116173116534279330e+02 -1.276406420020077981e+01 -2.326861147150777498e+01 -1.276406420020077981e+01 1.031723695093254065e+02
8.613859057033256761e+01 -1.104412843538136535e+01 5.441224526236868364e+00 -1.104412843538136535e+01 1.426779658786495020e+02 -1.909685541765385963e+01 5.441224526236868364e+00 -1.909685541765385963e+01 9.907108664531534714e+01
7.923925577406728848e+01 1.617706842062112926e+01 9.688113940383152212e+00 1.617706842062112926e+01 5.482719064332514591e+01 -2.069738620292001841e+01 9.688113940383152212e+00 -2.069738620292001841e+01 6.692665747425621703e+01
1.282942546837917064e+02 -1.707505473439396937e+01 2.926130535173869163e+01 -1.707505473439396937e+01 7.933949699147001411e+01 3.957012546420810395e+01 2.926130535173869163e+01 3.957012546420810395e+01 8.724785379535792629e+01
1.304561457970650906e+02 -7.084743006252588238e+00 -1.158252078046376710e+01 -7.084743006252588238e+00 1.195364153810032519e+02 9.534518526620907153e+00 -1.158252078046376710e+01 9.534518526620907153e+00 1.254654836687840458e+02
1.090345310642382515e+02 -3.653193209557537457e+00 -1.363551607407289445e+01 -3.653193209557537457e+00 1.045808346982492480e+02 -1.362814539632269506e+00 -1.363551607407289445e+01 -1.362814539632269506e+00 1.230126172190365992e+02
1.212188795711958278e+02 -2.276255500300689683e+00 -7.751860671785268941e+00 -2.276255500300689683e+00 1.026956055407866160e+02 -3.066953277686413415e+01 -7.751860671785268941e+00 -3.066953277686413415e+01 1.076496995968747399e+02
1.065144725650647928e+02 -1.556649098634644091e+01 -5.217821661266269118e+00 -1.556649098634644091e+01 7.898289884663932980e+01 2.553578439470982886e+01 -5.217821661266269118e+00 2.553578439470982886e+01 9.965898141322330162e+01
1.070854861032868115e+02 1.561908433855109912e+01 -8.059479474146870714e+00 1.561908433855109912e+01 1.223604311200430459e+02 -1.280614839251643922e+01 -8.059479474146870714e+00 -1.280614839251643922e+01 9.891711080947567325e+01
1.577107722431217383e+02 1.346361284783434309e+00 1.611524983303880276e+01 1.346361284783434309e+00 1.031388448137519163e+02 1.971152238926092082e+01 1.611524983303880276e+01 1.971152238926092082e+01 1.177990753061414324e+02
1.229990171297684896e+02 5.214445415329080902e+00 2.752938629148024319e+01 5.214445415329080902e+00 1.151918050457172029e+02 -3.557897479161393761e-01 2.752938629148024319e+01 -3.557897479161393761e-01 1.333765034272139758e+02
1.191522366355589213e+02 -1.120675887348256738e+00 -7.117934832508330700e+00 -1.120675887348256738e+00 1.252258177600033235e+02 -8.535672809569515351e+00 -7.117934832508330700e+00 -8.535672809569515351e+00 1.340022977445858601e+02
1.182659483006670484e+02 -7.901318995455467231e+00 1.268189303147596192e+01 -7.901318995455467231e+00 1.012569919022264884e+02 8.923370459230071106e+00 1.268189303147596192e+01 8.923370459230071106e+00 9.764455140771360675e+01
9.886917762771953733e+01 3.090881826356742135e+00 1.924179622915458054e+01 3.090881826356742135e+00 1.356451980387257379e+02 -6.617109167572112760e+00 1.924179622915458054e+01 -6.617109167572112760e+00 1.020267759759055082e+02
1.135916071297687893e+02 3.772075108754322503e+00 -3.467200100626182291e+01 3.772075108754322503e+00 4.575012966481347121e+01 2.149622501276274189e+00 -3.467200100626182291e+01 2.149622501276274189e+00 7.692733570400756093e+01
8.486061015396711582e+01 -1.137889986351951421e+01 -1.409378201909666295e+01 -1.137889986351951421e+01 9.039551361677105490e+01 -1.313221766563338377e+01 -1.409378201909666295e+01 -1.313221766563338377e+01 7.891485084753909973e+01
1.094156188803034695e+02 -1.621786868842546747e+00 -6.022509460549470006e+00 -1.621786868842546747e+00 7.553090136328243887e+01 -1.183935323548850427e+01 -6.022509460549470006e+00 -1.183935323548850427e+01 8.923551159716851089e+01
9.157525003164028021e+01 3.180756542149512089e+00 -2.016783867113786144e+01 3.180756542149512089e+00 1.193310350119508740e+02 -2.093919198588628205e+01 -2.016783867113786144e+01 -2.093919198588628205e+01 7.892788030369106878e+01
7.999938663753152923e+01 4.081453363224037401e-01 1.459227759880862330e+01 4.081453363224037401e-01 9.708566382320967136e+01 -2.521152212646067703e+00 1.459227759880862330e+01 -2.521152212646067703e+00 9.460849791326641878e+01
1.234497697387630240e+02 -1.701899003073276617e+01 3.903006877253694284e+01 -1.701899003073276617e+01 9.412227094555157692e+01 1.334140225546004643e+00 3.903006877253694284e+01 1.334140225546004643e+00 9.672369221653529792e+01
9.057973300776639292e+01 8.767587618522604487e+00 -2.969717394695378765e+00 8.767587618522604487e+00 7.258990583543300090e+01 1.099367495736225031e+01 -2.969717394695378765e+00 1.099367495736225031e+01 8.862897614746650277e+01
1.007635369150404614e+02 6.389711870788501891e+00 -1.145118005823115936e+01 6.389711870788501891e+00 1.106688243088762960e+02 5.286202529684261187e+00 -1.145118005823115936e+01 5.286202529684261187e+00 1.102635796908943036e+02
9.402559618512474060e+01 -7.921386260039884775e+00 8.496394230074896470e+00 -7.921386260039884775e+00 9.759909096946076090e+01 -1.483931418533954494e+00 8.496394230074896470e+00 -1.483931418533954494e+00 8.783099328729801414e+01
1.110053076363629003e+02 5.933252930632524347e+00 3.409832451349782190e+01 5.933252930632524347e+00 8.299701750215831453e+01 6.244533295489387292e+00 3.409832451349782190e+01 6.244533295489387292e+00 1.044057454371122304e+02
1.136388745728894349e+02 1.951978966223634160e+01 -1.549316463092186291e+00 1.951978966223634160e+01 1.402701318923178064e+02 -3.548719796543402083e+00 -1.549316463092186291e+00 -3.548719796543402083e+00 1.077120888175732176e+02
7.159890632372859898e+01 -7.681244823662378707e+00 -1.774279058580247437e+01 -7.681244823662378707e+00 7.559043741840018527e+01 3.412623798342922399e+00 -1.774279058580247437e+01 3.412623798342922399e+00 6.589114857949253690e+01
1.083803953020978526e+02 -7.727846528147519045e+00 -2.188216321031518419e+01 -7.727846528147519045e+00 9.875096146715824830e+01 2.925968855790961776e+00 -2.188216321031518419e+01 2.925968855790961776e+00 1.150158122821462854e+02
8.435051170089354855e+01 -1.412145772522967491e+01 -1.819083268749531745e+00 -1.412145772522967491e+01 1.166009835260362308e+02 4.586511223771660539e+00 -1.819083268749531745e+00 4.586511223771660539e+00 1.054870476394465015e+02
9.819245430473173997e+01 1.238644773559210854e+01 -7.861089360767275380e+00 1.238644773559210854e+01 1.137629397228912040e+02 2.504698957797232506e+00 -7.861089360767275380e+00 2.504698957797232506e+00 1.109327421250931707e+02
1.087596761132952849e+02 -3.767129621747736246e-01 1.330521460534454548e+01 -3.767129621747736246e-01 8.553096140715796025e+01 7.620282185754266635e+00 1.330521460534454548e+01 7.620282185754266635e+00 9.599028600401049971e+01
1.481219009121880390e+02 -1.669192214966257026e+01 9.622396026507169964e+00 -1.669192214966257026e+01 1.124091126548381965e+02 -2.477441715949393952e+01 9.622396026507169964e+00 -2.477441715949393952e+01 1.251465473096188958e+02
1.632192363715442980e+02 1.189689207469974619e+01 1.143501211994039535e+00 1.189689207469974619e+01 1.179340775908692933e+02 6.967905875721986941e-01 1.143501211994039535e+00 6.967905875721986941e-01 1.136497641548558590e+02
6.490262181129142505e+01 -1.629490415910498369e+00 1.131460853243389053e+01 -1.629490415910498369e+00 1.063112320701979741e+02 -7.640111686540290492e+00 1.131460853243389053e+01 -7.640111686540290492e+00 9.976250377104385336e+01
8.824974288902875230e+01 7.802932335680208276e+00 -5.122050403273338937e+00 7.802932335680208276e+00 1.298171793652622057e+02 -1.187073805687645311e+01 -5.122050403273338937e+00 -1.187073805687645311e+01 9.278375586611511494e+01
1.125604255361358668e+02 8.458732444409355011e+00 2.942279452360760494e+00 8.458732444409355011e+00 1.129249649918328942e+02 5.363618422441208011e+00 2.942279452360760494e+00 5.363618422441208011e+00 1.065399608442525903e+02
1.251571515750272567e+02 -3.414145486652641281e+00 -2.472838608812494510e+00 -3.414145486652641281e+00 1.202989238824514189e+02 -1.728538059045292385e+01 -2.472838608812494510e+00 -1.728538059045292385e+01 8.643337012758091475e+01
1.092035335721364078e+02 -1.240794158296688821e+01 1.986136113500854705e+01 -1.240794158296688821e+01 1.263320851611689335e+02 -1.528754649807110333e+01 1.986136113500854705e+01 -1.528754649807110333e+01 1.074982440572980380e+02
1.033361887664185872e+02 1.046969109846249957e+01 1.548508066177648246e+01 1.046969109846249957e+01 1.173671060372199975e+02 2.259279165095388731e+00 1.548508066177648246e+01 2.259279165095388731e+00 9.342880905115687540e+01
1.650474022173924595e+02 5.061040212605548705e-01 1.884991393664229520e+00 5.061040212605548705e-01 1.349612466962668123e+02 2.283279042905235912e+01 1.884991393664229520e+00 2.283279042905235912e+01 1.329323130990551078e+02
1.455592826931021477e+02 2.514875248368477756e+00 -4.600253971318808865e+00 2.514875248368477756e+00 1.057095470019831964e+02 4.972687185122498299e+00 -4.600253971318808865e+00 4.972687185122498299e+00 9.438652163108618254e+01
9.997316249642055652e+01 -1.197097927427918407e+01 -1.713468589503107653e+00 -1.197097927427918407e+01 9.076214539389394531e+01 8.976534444550873237e-01 -1.713468589503107653e+00 8.976534444550873237e-01 8.986330313044689433e+01
8.490607059221996167e+01 -1.776357114178206942e+01 -9.120761964656413312e+00 -1.776357114178206942e+01 9.948194248893943836e+01 1.088630082600771409e+01 -9.120761964656413312e+00 1.088630082600771409e+01 9.165846736107803849e+01
1.248039296761337766e+02 9.705660908704599521e+00 4.003276626312231024e+00 9.705660908704599521e+00 7.053952594360620765e+01 3.980403748906769401e+00 4.003276626312231024e+00 3.980403748906769401e+00 7.959352383367370010e+01
1.075575899013770851e+02 -1.577367836026659731e+01 1.268645809640511857e+01 -1.577367836026659731e+01 1.085383180169908712e+02 -6.247766883147540362e+00 1.268645809640511857e+01 -6.247766883147540362e+00 9.718880575895279605e+01
9.618059214824471326e+01 1.456265222952878347e+01 1.513680424988957895e+01 1.456265222952878347e+01 1.040753964156241835e+02 7.208950814533388929e+00 1.513680424988957895e+01 7.208950814533388929e+00 8.311822948657935228e+01
1.119378648064221409e+02 3.423798696867420138e-02 8.825649538090313939e+00 3.423798696867420138e-02 1.159478939246087492e+02 9.330374529320186738e+00 8.825649538090313939e+00 9.330374529320186738e+00 8.632347569996339587e+01
9.568461686479572847e+01 1.190026832063693618e+01 -1.893893270276084806e+01 1.190026832063693618e+01 1.105170834527415167e+02 2.314188336696400228e+01 -1.893893270276084806e+01 2.314188336696400228e+01 9.402217238642786867e+01
1.159799920373918951e+02 -9.083195284510230394e+00 3.879401687349180783e+00 -9.083195284510230394e+00 7.302311147610609510e+01 7.347376897958126207e+00 3.879401687349180783e+00 7.347376897958126207e+00 8.972397354458826157e+01
9.698133306847456936e+01 3.111281960258910573e+00 -2.221788569364690602e+01 3.111281960258910573e+00 9.928084186825815038e+01 -9.100219172475210172e+00 -2.221788569364690602e+01 -9.100219172475210172e+00 1.062411868551912306e+02
1.218989315873611190e+02 -8.210744802684860844e+00 7.915537270599402930e+00 -8.210744802684860844e+00 1.178472938044556457e+02 -3.546199500280430073e+00 7.915537270599402930e+00 -3.546199500280430073e+00 1.125027440386455879e+02
1.001449230643800803e+02 3.238010064802684163e+00 2.652778251436748391e+01 3.238010064802684163e+00 1.137326486149758580e+02 1.244508028827596391e+01 2.652778251436748391e+01 1.244508028827596391e+01 8.310553289974512836e+01
1.224772206978139764e+02 8.286734112651446438e+00 -6.355236120021433344e+00 8.286734112651446438e+00 1.382664963632551860e+02 -9.057944769120831907e+00 -6.355236120021433344e+00 -9.057944769120831907e+00 8.246661402070193958e+01
1.297853190162774695e+02 -3.766891857949342892e+00 6.069586692631397717e+00 -3.766891857949342892e+00 7.883267967881428717e+01 9.200079967800508740e+00 6.069586692631397717e+00 9.200079967800508740e+00 1.019336676724545896e+02
1.047651491947639357e+02 1.816306187584294918e+01 1.808878446522479777e+01 1.816306187584294918e+01 1.384400163833228135e+02 8.208224506421888833e+00 1.808878446522479777e+01 8.208224506421888833e+00 1.028696010884510343e+02
1.000021696798245756e+02 3.557849926401715379e+00 -6.193318973315412812e+00 3.557849926401715379e+00 7.167261310123060980e+01 -5.659253929363773139e+00 -6.193318973315412812e+00 -5.659253929363773139e+00 8.255568033958016372e+01
1.074062770200794148e+02 4.376375578751422246e+00 1.733440748568167766e+00 4.376375578751422246e+00 1.095793905846369540e+02 -1.822887489523828952e+00 1.733440748568167766e+00 -1.822887489523828952e+00 9.906975516804433823e+01
1.381760985671059530e+02 -1.206318407529621162e+00 -2.199866747152803370e+01 -1.206318407529621162e+00 1.240137930213122530e+02 2.390686461191547707e+01 -2.199866747152803370e+01 2.390686461191547707e+01 1.023749097295133765e+02
9.141209651318260399e+01 -1.037306389079535052e+01 -2.015238402424227715e+01 -1.037306389079535052e+01 1.036015807181854882e+02 -3.106146262213609899e-01 -2.015238402424227715e+01 -3.106146262213609899e-01 6.230586071075620680e+01
1.123460576955042285e+02 5.022998004862578192e+00 -1.525601901840411578e+01 5.022998004862578192e+00 1.102525474506488479e+02 -3.465977994702439613e+00 -1.525601901840411578e+01 -3.465977994702439613e+00 1.023104281873890358e+02
1.170380409402432775e+02 1.232567530872271250e-01 -3.898089921902915478e+00 1.232567530872271250e-01 7.946085163417008346e+01 6.059029979982723191e+00 -3.898089921902915478e+00 6.059029979982723191e+00 9.564738305396728890e+01
1.291260475560917769e+02 6.943463757247127610e+00 1.403947676754357055e+01 6.943463757247127610e+00 7.493292541032261056e+01 -1.805392829238029861e+01 1.403947676754357055e+01 -1.805392829238029861e+01 1.007487480067803887e+02
1.183752720951684125e+02 2.978371996956904688e+00 3.874646411381309274e+00 2.978371996956904688e+00 1.118503201758536392e+02 -1.579241414758001127e+01 3.874646411381309274e+00 -1.579241414758001127e+01 1.026010706545453388e+02