2.919439999999999813e+00 6.476429999999999687e+00 1.220839999999999925e+01 2.546200000000000130e-01 9.018660000000000565e+00 2.209799999999999898e+01 1.113329999999999931e+00 1.725420000000000087e+01 1.033270000000000088e+01 1.599599999999999911e+00 1.521209999999999951e+01 2.140269999999999939e+01 1.084629999999999939e+01 7.110229999999999606e+00 8.048819999999999197e+00 1.017149999999999999e+01 6.633860000000000312e+00 2.155300000000000082e+01 9.243029999999999191e+00 1.741069999999999851e+01 9.381539999999999324e+00 8.812459999999999738e+00 1.713129999999999953e+01 2.267399999999999949e+01 1.756750000000000034e+00 2.242420000000000080e+00 1.637509999999999977e+01 1.247419999999999973e+00 1.213969999999999994e+00 2.227080000000000126e+01 1.932620000000000005e+00 1.012759999999999927e+01 1.309929999999999950e+01 4.791699999999999626e+00 1.256630000000000003e+01 2.199279999999999902e+01 1.059590000000000032e+01 2.558780000000000054e+00 1.122470000000000034e+01 1.031719999999999970e+01 2.808629999999999960e+00 2.525359999999999872e+01 1.089480000000000004e+01 1.107670000000000066e+01 1.490380000000000038e+01 1.170030000000000037e+01 1.005250000000000021e+01 2.516799999999999926e+01 2.474810000000000176e+00 5.319139999999999979e+00 1.943259999999999987e+00 2.096049999999999969e+00 6.413850000000000051e+00 1.556739999999999924e+01 3.089049999999999851e+00 1.555119999999999969e+01 4.499579999999999913e+00 2.329610000000000181e+00 1.570090000000000074e+01 1.470700000000000074e+01 7.429079999999999906e+00 7.169839999999999769e+00 3.471049999999999969e+00 1.109450000000000003e+01 6.282449999999999868e+00 1.530240000000000045e+01 1.101960000000000051e+01 1.539669999999999916e+01 4.232109999999999594e+00 1.069389999999999930e+01 1.563109999999999999e+01 1.757300000000000040e+01 2.107990000000000030e+00 2.006170000000000009e+00 8.453120000000000189e+00 2.191380000000000106e+00 1.836619999999999919e+00 1.963080000000000069e+01 2.738900000000000112e+00 1.018859999999999921e+01 6.524510000000000254e+00 1.568679999999999986e+01 7.008180000000000298e+00 1.660249999999999915e+01 1.033200000000000074e+01 2.222090000000000121e+00 3.556430000000000202e+00 1.095770000000000088e+01 1.707889999999999908e+00 1.759120000000000061e+01 1.060629999999999917e+01 1.152369999999999983e+01 5.481869999999999798e+00 8.740299999999999514e+00 7.929420000000000357e+00 1.517890000000000050e+01 2.662380000000000191e+00 2.197849999999999859e+00 1.190240000000000009e+01 1.491769999999999996e+01 2.080789999999999917e+00 2.231419999999999959e+01 2.150269999999999904e+00 1.076989999999999981e+01 9.483180000000000831e+00 1.615199999999999969e+00 1.126210000000000022e+01 1.832229999999999848e+01 1.089240000000000030e+01 2.735430000000000028e+00 6.736550000000000260e+00 1.026159999999999961e+01 1.685380000000000100e+00 2.091519999999999868e+01 1.126909999999999989e+01 1.005450000000000088e+01 9.138640000000000541e+00 1.049419999999999931e+01 9.899279999999999191e+00 2.133539999999999992e+01 2.719199999999999839e+00 6.101510000000000211e+00 6.081669999999999909e+00 1.707910000000000039e+00 6.588289999999999758e+00 1.969500000000000028e+01 1.795239999999999947e+00 1.491210000000000058e+01 1.076609999999999978e+01 8.189300000000000468e-01 1.444669999999999987e+01 1.876910000000000167e+01 1.327069999999999972e+01 4.356690000000000396e+00 2.804390000000000160e+00 9.697960000000000136e+00 5.431560000000000166e+00 1.799840000000000018e+01 1.133639999999999937e+01 1.572090000000000032e+01 7.192050000000000054e+00 9.924820000000000420e+00 1.441890000000000072e+01 2.097289999999999921e+01 2.200909999999999922e+00 6.324910000000000032e+00 2.436189999999999856e+01 1.088699999999999946e-01 3.996830000000000105e+00 1.180530000000000079e+01 3.997380000000000155e+00 1.274639999999999951e+01 3.105640000000000178e+00 2.145900000000000030e-01 1.355339999999999989e+01 1.246720000000000006e+01 1.115809999999999924e+01 6.648889999999999745e+00 4.506499999999999950e-01 1.093449999999999989e+01 6.081339999999999968e+00 1.162229999999999919e+01 1.276229999999999976e+01 1.297220000000000084e+01 2.245710000000000051e+01 9.948330000000000339e+00 1.534670000000000023e+01 1.461280000000000001e+01 3.380440000000000111e+00 2.585389999999999855e+00 3.507200000000000095e+00 1.685099999999999909e+01 1.072899999999999965e-01 1.615889999999999915e+01 2.008599999999999941e+00 1.056380000000000052e+01 3.307150000000000034e+00 6.587199999999999722e-01 9.263090000000000046e+00 1.618659999999999854e+01 1.527519999999999989e+01 6.291890000000000427e+00 6.445940000000000225e+00 1.136030000000000051e+01 2.290729999999999933e+00 1.453470000000000084e+01 1.127350000000000030e+01 1.112759999999999927e+01 3.096690000000000165e+00 1.063679999999999914e+01 1.085740000000000016e+01 1.751269999999999882e+01 4.286089999999999733e+00 3.955540000000000056e+00 9.050549999999999429e+00 3.688070000000000181e+00 4.327720000000000233e+00 2.205620000000000047e+01 4.331909999999999705e+00 1.292399999999999949e+01 8.825820000000000221e+00 6.537519999999999776e+00 1.553940000000000055e+01 2.245629999999999882e+01 1.440990000000000038e+01 4.607910000000000394e+00 9.157780000000000697e+00 1.280659999999999954e+01 3.966120000000000090e+00 2.080020000000000024e+01 1.113199999999999967e+01 1.537729999999999997e+01 1.042459999999999987e+01 1.511519999999999975e+01 1.033949999999999925e+01 2.290449999999999875e+01 2.139250000000000096e+00 1.106559999999999988e+01 2.165380000000000038e+01 4.117200000000000415e+00 9.084519999999999484e+00 1.295240000000000080e+01 2.683120000000000172e+00 1.744104000000000099e+01 8.983200000000000074e-01 6.754249999999999865e+00 1.584629999999999939e+01 1.288129999999999953e+01 1.558910000000000018e+01 1.101299999999999990e+01 2.151549999999999851e+00 1.335560000000000080e+01 9.442980000000000373e+00 1.394999999999999929e+01 1.134699999999999953e+01 1.528180000000000049e+01 2.465319999999999823e+01 1.335260000000000069e+01 1.742409999999999926e+01 1.361989999999999945e+01 5.000930000000000319e+00 8.719480000000000786e+00 6.905770000000000408e+00 3.544729999999999936e+00 9.094179999999999708e+00 1.947429999999999950e+01 3.804699999999999971e+00 6.505800000000000471e-01 6.661699999999999733e+00 3.609690000000000065e+00 1.708500000000000085e+01 1.955549999999999855e+01 1.107280000000000086e+01 6.517719999999999736e+00 3.541490000000000027e+00 1.317900000000000027e+01 8.946799999999999642e+00 1.986489999999999867e+01 1.437759999999999927e+01 2.984299999999999731e-01 6.192280000000000229e+00 1.254790000000000028e+01 5.859000000000000319e-02 1.969470000000000098e+01 6.580470000000000041e+00 1.778680000000000039e+00 1.003420000000000023e+01 7.621679999999999566e+00 1.806440000000000046e+00 1.983620000000000161e+01 6.869790000000000063e+00 1.066259999999999941e+01 1.082349999999999923e+01 6.737770000000000259e+00 9.936099999999999710e+00 2.232120000000000104e+01 1.521809999999999974e+01 2.116179999999999950e+00 1.254100000000000037e+01 1.304139999999999944e+01 3.993999999999999773e-01 1.400899999999999923e-01 1.621170000000000044e+01 1.044280000000000008e+01 8.298080000000000567e+00 2.363179999999999836e+00 1.044130000000000003e+01 2.520710000000000051e+01 4.378339999999999677e+00 2.204190000000000094e+00 2.386029999999999873e+01 6.730599999999999916e+00 2.341359999999999886e+00 1.316820000000000057e+01 6.847789999999999822e+00 1.120930000000000071e+01 1.693600000000000105e-01 3.729109999999999925e+00 1.272530000000000072e+01 1.565600000000000058e+01 1.227000000000000035e-01 1.104470000000000063e+00 3.701439999999999841e+00 1.501009999999999955e+01 2.376720000000000166e+00 1.651119999999999877e+01 1.148590000000000089e+01 1.380470000000000041e+01 1.952050000000000063e+00 1.298639999999999972e+01 1.330669999999999931e+01 1.562909999999999933e+01 6.551459999999999617e+00 6.765240000000000364e+00 7.233000000000000540e-01 6.576329999999999565e+00 6.659580000000000055e+00 1.296640000000000015e+01 7.686519999999999797e+00 5.559000000000000052e-02 4.314180000000000348e+00 5.917709999999999582e+00 1.503730000000000011e+01 1.574179999999999957e+01 8.878999999999999393e-02 8.621520000000000294e+00 3.302509999999999835e+00 1.500290000000000035e+01 6.072560000000000180e+00 2.214730000000000132e+01 1.537909999999999933e+01 1.576260000000000083e+01 3.557999999999999829e+00 1.505269999999999975e+01 1.552330000000000076e+01 1.450120000000000076e+01 4.498910000000000409e+00 9.072910000000000252e+00 5.440500000000000336e-01 6.526060000000000194e+00 6.533339999999999925e+00 9.944639999999999702e+00 5.956290000000000084e+00 1.529279999999999973e+01 1.609539999999999971e+00 6.705980000000000274e+00 1.486599999999999966e+01 9.586750000000000327e+00 1.586229999999999940e+01 6.492810000000000414e+00 2.409349999999999881e+00 1.368929999999999936e+01 5.718420000000000059e+00 1.542159999999999975e+01 1.524660000000000082e+01 1.542120000000000068e+01 2.500359999999999872e+01 1.496180000000000021e+01 1.538170000000000037e+01 1.016920000000000002e+01 6.277619999999999756e+00 2.432819999999999983e+00 2.936620000000000008e+00 4.465230000000000032e+00 4.070050000000000168e+00 1.601350000000000051e+01 6.670510000000000161e+00 1.037270000000000003e+01 3.538279999999999870e+00 6.444939999999999891e+00 1.082440000000000069e+01 1.490119999999999933e+01 1.524380000000000024e+01 2.413450000000000095e+00 3.423620000000000108e+00 1.498780000000000001e+01 2.148579999999999934e+00 1.957039999999999935e+01 1.531559999999999988e+01 1.016310000000000002e+01 5.077350000000000030e+00 1.547240000000000038e+01 1.079039999999999999e+01 1.553240000000000087e+01 6.992589999999999861e+00 6.684989999999999988e+00 6.142500000000000071e+00 6.156559999999999810e+00 5.454880000000000173e+00 2.213510000000000133e+01 5.864169999999999661e+00 1.617680000000000007e+01 7.459259999999999557e+00 6.305559999999999832e+00 1.501360000000000028e+01 1.889059999999999917e+01 1.605880000000000152e+01 7.008949999999999569e+00 9.784959999999999880e+00 1.563599999999999923e+01 5.804439999999999600e+00 2.463439999999999941e+01 1.576350000000000051e+01 1.471000000000000085e+01 6.852640000000000065e+00 1.502050000000000018e+01 1.537270000000000003e+01 2.222220000000000084e+01 6.208750000000000213e+00 1.946730000000000071e+00 7.469199999999999839e+00 6.836140000000000327e+00 2.346309999999999896e+00 1.639499999999999957e+01 8.269320000000000448e+00 1.146759999999999913e+01 6.763429999999999609e+00 6.042040000000000077e+00 1.037330000000000041e+01 1.916639999999999944e+01 1.579049999999999976e+01 1.228380000000000027e+00 9.031050000000000466e+00 1.544209999999999994e+01 2.313660000000000050e+00 1.192799999999999971e-01 1.325290000000000035e+01 8.424620000000000886e+00 6.605129999999999946e+00 1.537020000000000053e+01 1.121809999999999974e+01 1.879090000000000060e+01 8.099949999999999761e+00 4.123160000000000380e+00 5.744810000000000194e+00 5.780090000000000394e+00 6.287630000000000052e+00 1.915340000000000131e+01 7.687280000000000335e+00 1.418950000000000067e+01 5.683819999999999872e+00 8.931129999999999569e+00 1.277580000000000027e+01 1.828620000000000090e+01 4.551000000000000184e-02 4.025509999999999700e+00 5.407460000000000377e+00 1.703559999999999874e+01 4.368249999999999744e+00 1.834019999999999939e+01 1.724229000000000056e+01 1.272359999999999935e+01 5.908529999999999838e+00 1.486790000000000056e+01 1.584869999999999912e+01 1.946089999999999876e+01 8.668990000000000862e+00 4.884409999999999918e+00 1.162650000000000006e+01 7.467679999999999652e+00 2.449969999999999981e+00 2.403610000000000113e+01 1.068130000000000024e+01 1.110779999999999923e+01 1.159290000000000020e+01 8.758800000000000807e+00 1.308680000000000021e+01 2.460780000000000101e+01 1.554780000000000051e+01 6.273439999999999905e+00 1.292759999999999998e+01 7.822099999999999609e-01 4.022310000000000052e+00 2.471979999999999933e+01 1.512310000000000088e+01 1.137729999999999997e+01 1.173160000000000025e+01 1.209589999999999943e+00 1.342530000000000001e+01 2.526970000000000027e+01 4.241959999999999731e+00 8.336650000000000560e+00 2.254889999999999972e+01 4.561379999999999768e+00 1.710290000000000177e+01 1.056300000000000061e+01 1.261490000000000045e+01 3.264000000000000234e-02 2.263810000000000144e+01 8.731090000000000018e+00 4.363139999999999574e+00 1.474239999999999995e+01 8.822000000000000675e-02 4.132620000000000182e+00 2.202269999999999950e+00 3.138900000000000023e-01 4.359320000000000306e+00 1.478330000000000055e+01 1.738520000000000110e+01 4.290020000000000167e+00 2.152530000000000143e+01 7.389999999999999868e-03 1.289819999999999922e+01 9.189249999999999474e+00 1.696809999999999974e+01 1.289930000000000021e+01 2.177710000000000079e+01 8.749980000000000757e+00 4.709080000000000155e+00 8.468420000000000059e+00 8.809939999999999216e+00 1.235069999999999979e+01 2.166870000000000118e+01 4.650920000000000165e+00 2.323900000000000132e-01 3.980960000000000054e+00 4.425119999999999720e+00 8.279360000000000497e+00 3.592589999999999950e+00 1.324890000000000079e+01 1.721020000000000039e+01 1.686520000000000152e+01 1.321899999999999942e+01 8.293219999999999814e+00 3.302970000000000184e+00 1.293810000000000038e+01 8.576950000000000074e+00 1.634469999999999956e+01 4.190120000000000289e+00 8.567529999999999646e+00 9.721399999999999153e+00 4.375280000000000058e+00 1.740099999999999980e+01 2.248689999999999856e+01 1.346000000000000085e+01 8.679959999999999454e+00 1.001520000000000010e+01 1.311660000000000004e+01 8.357689999999999841e+00 2.279090000000000060e+01 1.306010000000000026e+01 5.550199999999999578e-01 1.021860000000000035e+01 8.664619999999999322e+00 4.600660000000000416e+00 2.575559999999999850e+00 8.777409999999999712e+00 1.299690000000000012e+01 2.354859999999999953e+00 8.653710000000000235e+00 1.293740000000000023e+01 1.508910000000000018e+01 3.561099999999999821e-01 1.311650000000000027e+01 2.830529999999999990e+00 1.737819999999999965e+01 1.361849999999999916e+01 1.558309999999999995e+01 4.963600000000000234e-01 4.271119999999999806e+00 8.921210000000000306e+00 8.622719999999999274e+00 4.041960000000000441e+00 2.113029999999999831e+01 8.703730000000000189e+00 1.308339999999999925e+01 8.654780000000000584e+00 4.474540000000000184e+00 1.735140000000000171e+01 1.630590000000000117e+01 4.168899999999999828e+00 8.786949999999999150e+00 1.609209999999999852e+01 1.288030000000000008e+01 5.361099999999999755e-01 3.434699999999999864e+00 4.540670000000000428e+00 4.343429999999999680e+00 1.259029999999999916e+01 4.397569999999999979e+00 4.324399999999999800e+00 2.513019999999999854e+01 4.444490000000000052e+00 1.313749999999999929e+01 1.230560000000000009e+01 4.436079999999999579e+00 1.329420000000000002e+01 5.942000000000000060e-02 1.315119999999999933e+01 4.687579999999999636e+00 1.214850000000000030e+01 1.302510000000000012e+01 4.383390000000000342e+00 2.523140000000000072e+01 1.295289999999999964e+01 1.348559999999999981e+01 1.259660000000000046e+01 1.315889999999999915e+01 1.304879999999999995e+01 1.918999999999999873e-02 9.305199999999999250e+00 8.650669999999999860e+00 6.028660000000000352e+00 8.548220000000000596e+00 8.403999999999999915e+00 1.901020000000000110e+01 9.068459999999999965e+00 3.300299999999999900e-01 6.581109999999999793e+00 8.360120000000000218e+00 1.687340000000000018e+01 1.854670000000000130e+01 9.567000000000000504e-02 8.368560000000000443e+00 6.131800000000000139e+00 1.699879999999999924e+01 8.857590000000000074e+00 1.887849999999999895e+01 1.742079999999999984e+01 1.680160000000000053e+01 6.755919999999999703e+00 1.695779999999999887e+01 1.739386999999999972e+01 1.920479999999999876e+01 4.539199999999999902e-01 6.000079999999999636e+00 8.282899999999999707e-01 2.875499999999999723e-01 6.093350000000000044e+00 1.364160000000000039e+01 5.594999999999999973e-02 1.476149999999999984e+01 1.652719999999999967e+00 1.728979999999999961e+01 1.525179999999999936e+01 1.422470000000000034e+01 8.914020000000000721e+00 6.350719999999999921e+00 1.756590000000000096e+00 8.793309999999999960e+00 6.503720000000000390e+00 1.345139999999999958e+01 8.994009999999999394e+00 1.476479999999999926e+01 1.329700000000000104e+00 8.440709999999999269e+00 1.441840000000000011e+01 1.381639999999999979e+01 4.052799999999999736e-01 2.442480000000000206e+00 1.009009999999999962e+01 1.722090000000000032e+01 2.591380000000000017e+00 2.311220000000000141e+01 1.999100000000000044e-01 1.119190000000000040e+01 1.067740000000000045e+01 1.734302999999999884e+01 1.126050000000000040e+01 2.317569999999999908e+01 8.598940000000000694e+00 2.785670000000000091e+00 9.910589999999999122e+00 8.321389999999999176e+00 1.944350000000000023e+00 2.195060000000000144e+01 8.840170000000000528e+00 1.120059999999999967e+01 9.518760000000000332e+00 8.999430000000000263e+00 1.074549999999999983e+01 2.314799999999999969e+01 1.736028999999999911e+01 6.906489999999999796e+00 4.774510000000000254e+00 1.728790000000000049e+01 6.943800000000000416e+00 1.815619999999999834e+01 1.717269999999999897e+01 1.565109999999999957e+01 5.205149999999999721e+00 1.672360000000000113e+01 1.578930000000000078e+01 1.797810000000000130e+01 9.198919999999999320e+00 6.853150000000000297e+00 5.231429999999999580e+00 8.234450000000000713e+00 7.035210000000000186e+00 1.753760000000000119e+01 9.312950000000000728e+00 1.603569999999999851e+01 5.513639999999999652e+00 8.277850000000000819e+00 1.546969999999999956e+01 1.711850000000000094e+01 1.729700000000000060e+01 2.072599999999999998e+00 1.268329999999999957e+00 3.782800000000000051e-01 2.344040000000000123e+00 1.367259999999999920e+01 5.393900000000000361e-01 1.153599999999999959e+01 1.461240000000000094e+00 1.742777999999999849e+01 1.185769999999999946e+01 1.425089999999999968e+01 8.270929999999999893e+00 3.006390000000000118e+00 1.214800000000000102e+00 9.299640000000000128e+00 2.645669999999999966e+00 1.343180000000000085e+01 9.370720000000000383e+00 1.127720000000000056e+01 1.437980000000000036e+00 9.021869999999999834e+00 1.113250000000000028e+01 1.390549999999999997e+01 1.387320000000000109e+00 8.079639999999999489e+00 7.542340000000000266e+00 1.338580000000000103e+00 9.225799999999999557e+00 1.983380000000000010e+01 1.645229999999999970e+00 1.699470000000000169e+01 8.006909999999999528e+00 1.369099999999999984e+00 1.720009999999999906e+01 2.034819999999999851e+01 1.095700000000000074e+01 9.161410000000000053e+00 7.216879999999999740e+00 1.027519999999999989e+01 8.235129999999999839e+00 1.992210000000000036e+01 1.076440000000000019e+01 5.964800000000000102e-01 7.718619999999999592e+00 1.015320000000000000e+01 1.663360000000000127e+01 1.975090000000000146e+01 1.657280000000000086e+00 4.036909999999999776e+00 3.803010000000000002e+00 1.823229999999999906e+00 4.440909999999999691e+00 1.649139999999999873e+01 2.022089999999999943e+00 1.326210000000000022e+01 3.934989999999999988e+00 1.738690000000000069e+00 1.336280000000000001e+01 1.684250000000000114e+01 1.039400000000000013e+01 4.346770000000000245e+00 3.854940000000000033e+00 1.056959999999999944e+01 4.053259999999999863e+00 1.617920000000000158e+01 1.018050000000000033e+01 1.345020000000000060e+01 3.947950000000000070e+00 1.021460000000000079e+01 1.289250000000000007e+01 1.640759999999999863e+01 1.928830000000000044e+00 4.065559999999999619e+00 7.448450000000000237e+00 1.966509999999999980e+00 4.050159999999999982e+00 2.057010000000000005e+01 1.856219999999999981e+00 1.269410000000000061e+01 7.904609999999999914e+00 1.436989999999999990e+00 1.282740000000000080e+01 2.065399999999999991e+01 1.027710000000000079e+01 4.753389999999999560e+00 7.054420000000000357e+00 1.033179999999999943e+01 4.295429999999999637e+00 1.984649999999999892e+01 1.012850000000000072e+01 1.296860000000000035e+01 7.138899999999999579e+00 1.037149999999999928e+01 1.237160000000000082e+01 2.017210000000000036e+01 2.616049999999999986e+00 8.388120000000000687e+00 1.100399999999999956e+01 2.349580000000000002e+00 8.432610000000000383e+00 2.359049999999999869e+01 2.535390000000000033e+00 1.735689999999999955e+01 1.206129999999999924e+01 2.377720000000000056e+00 1.280600000000000072e-01 2.373010000000000019e+01 1.186229999999999940e+01 8.642030000000000101e+00 1.119810000000000016e+01 1.128999999999999915e+01 7.998359999999999914e+00 2.398959999999999937e+01 1.112589999999999968e+01 1.856200000000000072e-01 1.134399999999999942e+01 1.097010000000000041e+01 1.697799999999999865e-01 2.418789999999999907e+01 2.441170000000000062e+00 1.179999999999999973e-02 3.493790000000000173e+00 2.896349999999999980e+00 2.896500000000000186e-01 1.500000000000000000e+01 2.674220000000000041e+00 8.384779999999999234e+00 2.278960000000000097e+00 2.240709999999999980e+00 8.605700000000000571e+00 1.470439999999999969e+01 1.110120000000000040e+01 1.353999999999999926e-01 2.660449999999999982e+00 1.143549999999999933e+01 1.732620000000000005e+01 1.534089999999999954e+01 1.125029999999999930e+01 8.644759999999999778e+00 2.225439999999999863e+00 1.088160000000000061e+01 8.795400000000000773e+00 1.539390000000000036e+01 2.716730000000000089e+00 4.412589999999999790e+00 1.134440000000000026e+01 2.827490000000000059e+00 4.005080000000000418e+00 2.394819999999999993e+01 2.724759999999999849e+00 1.280690000000000062e+01 1.119660000000000011e+01 3.054050000000000153e+00 1.307089999999999996e+01 2.396170000000000044e+01 1.202519999999999989e+01 4.503420000000000201e+00 1.048879999999999946e+01 1.113930000000000042e+01 4.803169999999999717e+00 2.448740000000000094e+01 1.162669999999999959e+01 1.315119999999999933e+01 1.120229999999999926e+01 1.121850000000000058e+01 1.292900000000000027e+01 2.433549999999999969e+01 4.656150000000000233e+00 6.675580000000000069e+00 5.272009999999999863e+00 3.961500000000000021e+00 7.332250000000000156e+00 1.742210000000000036e+01 4.920300000000000118e+00 1.624480000000000146e+01 5.661900000000000155e+00 4.190019999999999634e+00 1.548980000000000068e+01 1.768309999999999960e+01 1.322739999999999938e+01 6.410910000000000331e+00 4.543370000000000353e+00 1.287659999999999982e+01 6.774329999999999963e+00 1.733259999999999934e+01 1.305339999999999989e+01 1.618840000000000146e+01 4.800810000000000244e+00 1.284459999999999980e+01 1.550140000000000029e+01 1.826389999999999958e+01 4.614550000000000374e+00 2.773600000000000065e+00 1.038650000000000073e+00 4.056680000000000064e+00 2.588709999999999845e+00 1.369699999999999918e+01 4.621459999999999901e+00 1.154310000000000080e+01 1.076160000000000005e+00 4.011070000000000135e+00 1.132060000000000066e+01 1.362279999999999980e+01 1.292789999999999928e+01 2.589249999999999829e+00 7.520200000000000218e-01 1.345979999999999954e+01 3.158490000000000020e+00 1.350070000000000014e+01 1.333810000000000073e+01 1.134239999999999959e+01 1.151259999999999950e+00 1.312770000000000081e+01 1.157740000000000080e+01 1.373840000000000039e+01 4.974520000000000053e+00 6.967740000000000045e+00 8.627860000000000085e+00 4.146329999999999849e+00 6.720749999999999780e+00 2.106640000000000157e+01 4.474990000000000023e+00 1.551960000000000051e+01 8.886079999999999757e+00 4.421789999999999665e+00 1.556380000000000052e+01 2.146259999999999835e+01 1.345439999999999969e+01 7.386650000000000382e+00 8.570880000000000720e+00 1.302260000000000062e+01 6.723900000000000432e+00 2.153470000000000084e+01 1.300600000000000023e+01 1.613200000000000145e+01 9.237809999999999633e+00 1.247380000000000067e+01 1.568670000000000009e+01 2.137959999999999994e+01 4.165860000000000340e+00 6.117259999999999920e+00 6.497300000000000297e-01 4.497530000000000250e+00 5.927229999999999777e+00 1.372380000000000067e+01 3.937180000000000124e+00 1.480109999999999992e+01 1.324359999999999982e+00 4.372639999999999638e+00 1.463739999999999952e+01 1.355979999999999919e+01 1.351260000000000083e+01 6.230000000000000426e+00 7.767899999999999805e-01 1.296170000000000044e+01 6.510100000000000442e+00 1.314799999999999969e+01 1.347530000000000072e+01 1.498160000000000025e+01 9.717999999999999972e-01 1.210200000000000031e+01 1.488139999999999930e+01 1.375539999999999985e+01 4.765119999999999578e+00 2.076610000000000067e+00 5.387059999999999960e+00 4.081100000000000172e+00 1.477249999999999952e+00 1.786339999999999861e+01 4.752629999999999910e+00 1.020379999999999932e+01 4.464000000000000412e+00 4.074270000000000280e+00 1.071860000000000035e+01 1.720820000000000149e+01 1.313160000000000061e+01 2.289149999999999796e+00 4.597889999999999588e+00 1.307680000000000042e+01 1.543260000000000076e+00 1.785330000000000084e+01 1.308039999999999914e+01 1.005259999999999998e+01 4.959270000000000067e+00 1.318790000000000084e+01 1.060560000000000080e+01 1.741720000000000113e+01 4.441690000000000360e+00 1.497630000000000017e+00 9.102430000000000021e+00 3.915129999999999999e+00 1.693550000000000111e+00 2.141410000000000124e+01 4.364840000000000053e+00 1.009290000000000020e+01 8.444459999999999411e+00 4.396860000000000213e+00 1.021940000000000026e+01 2.123320000000000007e+01 1.359340000000000082e+01 2.101729999999999876e+00 8.893860000000000099e+00 1.255840000000000067e+01 1.748299999999999965e+00 2.143299999999999983e+01 1.351190000000000069e+01 1.049050000000000082e+01 9.211980000000000501e+00 1.277159999999999940e+01 1.009750000000000014e+01 2.204070000000000107e+01 6.141040000000000276e+00 4.357630000000000337e+00 1.137449999999999939e+01 5.873630000000000351e+00 3.848770000000000024e+00 2.350029999999999930e+01 6.167259999999999742e+00 1.294720000000000049e+01 1.116220000000000034e+01 6.543779999999999930e+00 1.365460000000000029e+01 2.493080000000000140e+01 1.508350000000000080e+01 4.973720000000000141e+00 1.132399999999999984e+01 1.446110000000000007e+01 4.086450000000000138e+00 2.364260000000000161e+01 1.467149999999999999e+01 1.392379999999999995e+01 1.199329999999999963e+01 1.440770000000000017e+01 1.292539999999999978e+01 2.376899999999999835e+01 6.046929999999999694e+00 1.737770000000000081e+01 2.355140000000000011e+00 6.339319999999999844e+00 1.735281000000000162e+01 1.551069999999999993e+01 6.100299999999999834e+00 8.620350000000000179e+00 2.223079999999999945e+00 5.837670000000000137e+00 8.752449999999999619e+00 1.495780000000000065e+01 1.453149999999999942e+01 4.275900000000000256e-01 2.209709999999999841e+00 1.466109999999999935e+01 4.825300000000000145e-01 1.537340000000000018e+01 1.522369999999999912e+01 8.738179999999999836e+00 2.554199999999999804e+00 1.495809999999999995e+01 8.496719999999999828e+00 1.504039999999999999e+01 5.805399999999999672e+00 8.711560000000000414e+00 1.110030000000000072e+01 6.158940000000000303e+00 8.450139999999999318e+00 2.369160000000000110e+01 6.787069999999999936e+00 1.731080000000000041e+01 1.131700000000000017e+01 6.060579999999999856e+00 1.726210000000000022e+01 2.369129999999999825e+01 1.526130000000000031e+01 8.971700000000000230e+00 1.099050000000000082e+01 1.458849999999999980e+01 8.473990000000000578e+00 2.407169999999999987e+01 1.480450000000000088e+01 2.389999999999999902e-01 1.133810000000000073e+01 1.477059999999999995e+01 3.236700000000000133e-01 2.397100000000000009e+01 6.940610000000000390e+00 4.457620000000000360e+00 3.690910000000000135e+00 6.843659999999999854e+00 4.400290000000000035e+00 1.552149999999999963e+01 6.878820000000000157e+00 1.304010000000000069e+01 3.304440000000000044e+00 6.968399999999999928e+00 1.263380000000000081e+01 1.642780000000000129e+01 1.584769999999999968e+01 4.627909999999999968e+00 3.767710000000000115e+00 1.575779999999999959e+01 4.386180000000000412e+00 1.610170000000000101e+01 1.613309999999999889e+01 1.248980000000000068e+01 3.878899999999999793e+00 1.541750000000000043e+01 1.308939999999999948e+01 1.638510000000000133e+01 7.771530000000000271e+00 8.866740000000000066e+00 7.234180000000000277e+00 6.988069999999999560e+00 8.353630000000000777e+00 2.027019999999999911e+01 7.655540000000000234e+00 1.625300000000000078e-01 7.900990000000000180e+00 7.001030000000000086e+00 1.693540000000000134e+01 1.988779999999999859e+01 1.562040000000000006e+01 8.545519999999999783e+00 7.075739999999999696e+00 1.551650000000000063e+01 9.009240000000000137e+00 2.039839999999999876e+01 1.584939999999999927e+01 1.639649999999999963e+01 8.102779999999999205e+00 1.553059999999999974e+01 1.649599999999999955e-01 2.061009999999999920e+01 6.700879999999999725e+00 4.598770000000000024e+00 7.532239999999999824e+00 6.943749999999999645e+00 4.001319999999999766e+00 1.975290000000000035e+01 6.863030000000000186e+00 1.297470000000000034e+01 7.630250000000000199e+00 6.752259999999999707e+00 1.238020000000000032e+01 2.063070000000000093e+01 1.636339999999999861e+01 4.553020000000000067e+00 7.492689999999999628e+00 1.543800000000000061e+01 4.492189999999999905e+00 2.043530000000000157e+01 1.557089999999999996e+01 1.276329999999999920e+01 7.973090000000000011e+00 1.518650000000000055e+01 1.285459999999999958e+01 2.039730000000000132e+01 8.927300000000000679e+00 1.759169999999999900e+00 5.284309999999999619e+00 8.637760000000000105e+00 1.467379999999999907e+00 1.788710000000000022e+01 9.017480000000000828e+00 9.992100000000000648e+00 4.558819999999999872e+00 8.242390000000000327e+00 1.017970000000000041e+01 1.796480000000000032e+01 1.680189999999999984e+01 1.289160000000000084e+00 5.900150000000000006e+00 1.676810000000000045e+01 1.731219999999999981e+00 1.820220000000000127e+01 3.947399999999999798e-01 1.020229999999999926e+01 5.303659999999999819e+00 1.708249999999999957e+01 1.041510000000000069e+01 1.745540000000000092e+01 8.872210000000000818e+00 6.414439999999999920e+00 1.012519999999999953e+01 8.544230000000000658e+00 5.495180000000000398e+00 2.263400000000000034e+01 8.951620000000000132e+00 1.478519999999999968e+01 9.613910000000000622e+00 8.580859999999999488e+00 1.450549999999999962e+01 2.255930000000000035e+01 6.447899999999999743e-01 6.028419999999999668e+00 1.013460000000000072e+01 1.732900000000000063e+01 6.316279999999999895e+00 2.270090000000000074e+01 1.717970000000000041e+01 1.485929999999999929e+01 1.076370000000000005e+01 2.128999999999999990e-02 1.470850000000000080e+01 2.296170000000000044e+01