-1.658904794249999895e+03
-1.661835336549999965e+03
-1.661330382079999936e+03
-1.663433933539999998e+03
-1.660558410699999968e+03
-1.658639116009999952e+03
-1.667441099630000053e+03
-1.662965248010000096e+03
-1.665763416069999948e+03
-1.661893985599999951e+03
-1.660116963980000037e+03
-1.663093152570000029e+03
-1.662147043660000008e+03
-1.661150707450000027e+03
-1.661501925159999928e+03
-1.661805065450000029e+03
-1.664510635489999913e+03
-1.661764902299999903e+03
-1.689373619969999936e+03
-1.660440765099999908e+03
-1.664238773159999937e+03
-1.666092498669999941e+03
-1.660613865170000054e+03
-1.662310337520000076e+03
-1.662809155760000067e+03
-1.665566557200000034e+03
-1.666164558579999948e+03
-1.665080532200000107e+03
-1.660672998139999891e+03
-1.659320980160000090e+03
-1.663810076429999981e+03
-1.667429319070000020e+03
-1.657139751590000060e+03
-1.679443990989999975e+03
-1.661701207070000009e+03
-1.660714095069999985e+03
-1.664522871859999896e+03
-1.662760408740000003e+03
-1.660776916100000108e+03
-1.658426689899999928e+03
-1.665963548559999936e+03
-1.664472553840000046e+03
-1.655733966779999946e+03
-1.661082940660000077e+03
-1.663844194669999979e+03
-1.662581326329999911e+03
-1.662772951919999969e+03
-1.663354013399999985e+03
-1.665144331319999992e+03
-1.683769279639999922e+03
-1.665862887830000091e+03
-1.662436743349999915e+03
-1.662644993350000050e+03
-1.659795128010000099e+03
-1.680045928989999993e+03
-1.660051464619999933e+03
-1.660482091150000088e+03
-1.663567926960000023e+03
-1.661207408689999966e+03
-1.664395907840000064e+03
-1.658829355849999956e+03
-1.658963816610000094e+03
-1.660739538940000102e+03
-1.658473431979999987e+03
-1.660815100340000072e+03
-1.659640127419999999e+03
-1.658746762389999958e+03
-1.660211640709999983e+03
-1.661483287949999976e+03
-1.663829069650000065e+03
-1.666334112929999947e+03
-1.665282595780000065e+03
-1.665612162639999951e+03
-1.663405120469999929e+03
-1.662982496320000109e+03
-1.664242359809999925e+03
-1.667864541579999923e+03
-1.663066690139999992e+03
-1.656715449260000014e+03
-1.662911271230000011e+03
-1.665150770010000087e+03
-1.663087653999999930e+03
-1.661535568750000039e+03
-1.664621529029999920e+03
-1.683727346639999951e+03
-1.664644685530000061e+03
-1.653513243090000060e+03
-1.665904681380000056e+03
-1.663284792870000047e+03
-1.661681030649999911e+03
-1.660583810679999942e+03
-1.680642741030000025e+03
-1.665433276389999946e+03
-1.661028503799999953e+03
-1.666824600229999987e+03
-1.663252408959999912e+03
-1.661657567149999977e+03
-1.680100410889999921e+03
-1.667149009700000079e+03
-1.663666903809999894e+03
-1.664508867649999956e+03
-1.663163955810000061e+03
-1.660435598250000112e+03
-1.664269909399999960e+03
-1.661077872849999949e+03
-1.663714723459999959e+03
-1.661678933850000021e+03
-1.669463358400000061e+03
-1.657530929699999888e+03
-1.662622842349999928e+03
-1.662497595040000078e+03
-1.659149545290000106e+03
-1.664206976870000062e+03
-1.679698744430000033e+03
-1.662609983340000099e+03
-1.662817208160000064e+03
-1.663061914209999941e+03
-1.683080785970000079e+03
-1.658506978690000096e+03
-1.658680154209999955e+03
-1.662147748330000013e+03
-1.665603438610000012e+03
-1.664615989019999915e+03
-1.658213632909999887e+03
-1.664300416170000062e+03
-1.664450712540000040e+03
-1.659847351419999995e+03
-1.656914249850000033e+03
-1.680881382499999972e+03
-1.664251075330000049e+03
-1.662040053420000049e+03
-1.663785205220000080e+03
-1.665283641870000110e+03
-1.661730131369999981e+03
-1.664543377030000102e+03
-1.660522648769999932e+03
-1.665019656070000110e+03
