-6.713630000000000431e-01 -5.557399999999999840e-02 1.263099999999999987e-02 -1.146640000000000020e-01 -2.333600000000000119e-01 6.010299999999999671e-02 -7.948990000000000222e-01 2.232599999999999862e-02 -4.051799999999999846e-01 4.773890000000000078e-01 -5.730760000000000298e-01 5.840940000000000021e-01 -4.439799999999999996e-02 -7.810409999999999853e-01 5.381569999999999965e-01 7.137529999999999708e-01 7.400600000000000234e-02 2.979589999999999739e-01 5.745179999999999731e-01 4.503610000000000113e-01 9.638050000000000228e-01 4.419549999999999867e-01 -4.346389999999999976e-01 -3.133600000000000274e-02 4.393190000000000150e-01 -8.182500000000000329e-01 -2.208229999999999915e-01 1.229050000000000004e-01 1.440839999999999899e-01 -6.140959999999999752e-01 -4.050039999999999751e-01 1.229878000000000027e+00 -4.762179999999999747e-01 -1.908500000000000127e-02 1.102799999999999961e-02 1.856879999999999920e-01 -2.826469999999999816e-01 6.597000000000000086e-02 -3.272499999999999715e-02 3.661300000000000110e-01 -2.790460000000000163e-01 9.898400000000000254e-02 1.112740999999999980e+00 -7.888199999999999379e-02 8.225000000000000366e-02 -1.177279999999999993e-01 -1.892759999999999998e-01 6.557000000000000328e-02 9.098999999999999450e-03 4.301090000000000191e-01 6.210029999999999717e-01 2.221980000000000066e-01 5.494940000000000380e-01 -2.988739999999999730e-01 -6.859539999999999527e-01 -7.705940000000000012e-01 1.009690000000000032e-01 -3.648819999999999841e-01 -1.060780000000000056e+00 -3.491879999999999984e-01 3.156300000000000217e-01 -9.720900000000000374e-02 1.176809999999999939e-01 -5.500700000000000034e-02 1.701930000000000109e-01 -6.666500000000000203e-02 3.078049999999999953e-01 1.164468999999999976e+00 -5.372630000000000461e-01 -2.049519999999999953e-01 5.493100000000000066e-02 -1.673109999999999875e-01 -4.410900000000000237e-02 -4.595130000000000048e-01 6.374399999999999511e-02 8.525900000000000145e-02 3.355420000000000069e-01 -1.971519999999999939e-01 -4.213569999999999816e-01 2.589699999999999988e-02 -9.704500000000000626e-02 -4.063379999999999770e-01 -6.343090000000000117e-01 -4.662999999999999784e-02 4.135079999999999867e-01 -8.533950000000000147e-01 -6.006000000000000227e-01 -1.171095999999999915e+00 2.265939999999999899e-01 -6.154669999999999863e-01 4.227429999999999799e-01 -6.468580000000000441e-01 -1.872199999999999906e-02 -3.994260000000000033e-01 3.247289999999999899e-01 7.910639999999999894e-01 -4.038789999999999880e-01 3.579800000000000343e-02 1.471899999999999875e-01 2.415789999999999882e-01 1.414819999999999967e-01 4.727100000000000191e-01 3.964299999999999768e-02 8.834599999999999398e-02 2.397499999999999978e-02 3.478299999999999725e-01 3.269580000000000264e-01 3.257470000000000088e-01 4.887449999999999850e-01 -8.416479999999999517e-01 -1.493430000000000035e-01 5.882450000000000179e-01 -1.746689999999999909e-01 -5.419000000000000483e-01 -4.441430000000000100e-01 5.739800000000000457e-01 6.825860000000000261e-01 -1.656440000000000135e-01 6.201379999999999670e-01 6.636459999999999582e-01 -9.892609999999999459e-01 7.260500000000000287e-02 4.301929999999999921e-01 2.961349999999999816e-01 -2.580299999999999955e-02 3.997729999999999895e-01 1.866911999999999905e+00 5.767699999999999910e-02 -3.545399999999999940e-02 7.223880000000000301e-01 -8.345040000000000235e-01 3.953070000000000195e-01 -9.029000000000000567e-03 2.935780000000000056e-01 2.740630000000000011e-01 1.739279999999999993e-01 -2.152030000000000054e-01 -3.032480000000000175e-01 7.528899999999999482e-02 9.611300000000000399e-02 4.388999999999999846e-02 1.335976999999999970e+00 1.363779000000000075e+00 -1.068527999999999922e+00 -2.620140000000000247e-01 -1.240109999999999962e-01 -1.363850000000000062e-01 1.633199999999999930e-01 4.917279999999999984e-01 3.712380000000000124e-01 9.136400000000000077e-01 -2.572139999999999982e-01 -5.982979999999999965e-01 9.550200000000000355e-02 -9.150500000000000300e-01 4.389250000000000096e-01 2.331099999999999839e-02 3.867599999999999927e-01 6.219500000000000028e-01 -4.364069999999999894e-01 1.314359000000000055e+00 1.221959999999999991e-01 -9.496289999999999454e-01 7.974900000000000044e-02 -1.043247999999999953e+00 2.546269000000000116e+00 1.736393999999999993e+00 1.337013999999999925e+00 -2.982199999999999851e-01 5.412000000000000144e-02 -1.281339999999999979e-01 1.276919999999999999e-01 -1.650389999999999913e-01 -2.109689999999999899e-01 2.870889999999999831e-01 4.447999999999999871e-02 2.376800000000000093e-02 8.578700000000000214e-01 -1.158118999999999899e+00 -1.454482999999999970e+00 -3.961800000000000044e-02 4.101119999999999766e-01 -5.666339999999999710e-01 -1.096319999999999933e-01 9.521999999999999215e-03 2.183609999999999995e-01 2.725199999999999845e-01 -7.950909999999999922e-01 -1.473299999999999887e-01 1.506500000000000027e-02 -8.130749999999999922e-01 3.743960000000000066e-01 -7.969199999999999895e-02 5.440690000000000248e-01 3.366750000000000020e-01 6.660270000000000357e-01 3.464590000000000169e-01 -9.904779999999999696e-01 -2.203390000000000071e-01 1.210139999999999966e-01 5.323320000000000274e-01 3.400999999999999943e-03 -1.114540000000000086e+00 -3.878820000000000046e-01 -2.884269999999999889e-01 -1.115710000000000035e-01 -1.952990000000000004e-01 -8.058500000000000385e-02 5.783300000000000107e-01 3.738119999999999776e-01 2.712950000000000084e-01 -2.671959999999999891e-01 3.886459999999999915e-01 2.044960000000000111e-01 7.120090000000000030e-01 -1.104880000000000029e-01 3.194799999999999723e-02 -7.321849999999999747e-01 6.224279999999999813e-01 7.584020000000000206e-01 -2.846150000000000069e-01 -2.021890000000000076e-01 2.066399999999999834e-02 -2.269839999999999913e-01 -3.458599999999999869e-02 -5.129080000000000306e-01 -7.139459999999999695e-01 7.826819999999999888e-01 -1.559399999999999953e-01 3.201699999999999685e-02 -4.315339999999999732e-01 -6.557079999999999576e-01 -4.630130000000000079e-01 -1.337615999999999916e+00 -2.523349999999999760e-01 9.166799999999999948e-02 1.602599999999999858e-02 -9.962609999999999522e-01 -1.386670000000000125e-01 -5.999250000000000416e-01 7.709930000000000394e-01 -9.116090000000000027e-01 -1.058605999999999936e+00 4.828060000000000129e-01 -4.676870000000000194e-01 -7.070670000000000011e-01 -7.423659999999999703e-01 -9.202259999999999884e-01 9.438220000000000498e-01 6.629310000000000480e-01 -1.795440000000000091e-01 -3.591429999999999900e-01 -3.452760000000000273e-01 4.698660000000000059e-01 1.421939999999999871e-01 -1.537719999999999920e-01 -1.913999999999999868e-01 -3.202670000000000239e-01 8.615000000000000435e-02 1.188639999999999974e-01 2.322639999999999982e-01 -1.486480000000000024e-01 -2.044850000000000001e-01 -2.110499999999999876e-02 9.337199999999999667e-02 4.070920000000000094e-01 3.067880000000000051e-01 -9.013569999999999638e-01 -1.592679999999999929e-01 -1.989920000000000022e-01 1.622329999999999883e-01 4.973569999999999935e-01 -1.155110000000000026e-01 6.714489999999999625e-01 8.872919999999999696e-01 -1.194768999999999970e+00 7.434169999999999945e-01 4.537579999999999947e-01 1.065679999999999961e-01 -2.396989999999999954e-01 -4.224439999999999862e-01 3.130800000000000249e-01 -4.071230000000000127e-01 -9.838500000000000023e-02 6.253600000000000270e-01 -1.517370000000000108e-01 3.582139999999999769e-01 -1.118070000000000036e-01 -4.804769999999999874e-01 -9.921499999999999764e-01 -7.020200000000000051e-02 -2.541200000000000056e-02 -1.231100000000000076e-02 -5.298599999999999838e-02 1.668010000000000048e-01 9.828999999999999196e-03 -9.728999999999999801e-03 1.627810000000000090e-01 -3.808210000000000206e-01 -3.171379999999999755e-01 6.649209999999999843e-01 -1.205539999999999945e-01 -2.627220000000000111e-01 -3.846350000000000047e-01 -8.488099999999999812e-02 2.174079999999999901e-01 -1.397329999999999961e-01 2.092199999999999893e-01 -1.851029999999999898e-01 -1.057079999999999964e-01 -1.190129999999999938e-01 -7.986999999999999655e-02 1.454129999999999867e-01 2.104139999999999899e-01 -1.826339999999999908e-01 -2.919950000000000045e-01 1.253049999999999997e-01 -1.281259999999999899e-01 -2.021560000000000024e-01 -5.483780000000000321e-01 -5.907499999999999973e-01 2.515519999999999978e-01 -5.678210000000000202e-01 2.440720000000000112e-01 1.545279999999999987e-01 1.795859999999999956e-01 -2.386369999999999880e-01 6.144020000000000037e-01 -5.750299999999999856e-02 8.490300000000000624e-02 -3.593870000000000120e-01 -8.293799999999999784e-02 -3.103580000000000227e-01 -4.485509999999999775e-01 -3.329969999999999875e-01 -1.283499999999999919e-02 1.246609999999999940e-01 -2.990019999999999900e-01 -2.195709999999999884e-01 1.025603000000000042e+00 -7.787900000000000378e-02 8.488040000000000029e-01 1.525987999999999900e+00 -6.543480000000000407e-01 -1.563090000000000035e-01 -6.843080000000000274e-01 -8.727300000000000335e-02 4.470470000000000277e-01 -3.004749999999999921e-01 2.084000000000000019e-01 -1.540159999999999862e-01 3.015570000000000195e-01 -5.168580000000000396e-01 -3.280759999999999788e-01 8.433439999999999825e-01 2.587199999999999916e-02 -4.508090000000000153e-01 2.070079999999999976e-01 -7.924100000000000588e-02 1.810730000000000117e-01 2.524279999999999857e-01 -1.425839999999999885e-01 -5.511470000000000535e-01 -4.844439999999999857e-01 -7.969099999999999795e-02 -4.841010000000000035e-01 1.154096999999999928e+00 6.490110000000000046e-01 -5.510400000000000020e-02 1.074660000000000060e-01 1.001489000000000074e+00 -1.038310000000000066e-01 -2.062410000000000077e-01 -1.376880000000000048e-01 -2.596999999999999916e-03 -5.783580000000000387e-01 3.953969999999999985e-01 -1.015559999999999935e-01 2.485549999999999982e-01 -1.446419999999999928e-01 -5.580500000000000044e-02 -1.206829999999999986e-01 2.995720000000000049e-01 -8.479100000000000525e-02 -2.593989999999999907e-01 7.004199999999999315e-02 4.659159999999999968e-01 3.480969999999999898e-01 1.251417000000000002e+00 -9.180289999999999839e-01 1.285166000000000031e+00 3.399220000000000019e-01 3.373780000000000112e-01 -2.182449999999999946e-01 -4.974549999999999805e-01 -9.776799999999999380e-02 -4.419509999999999827e-01 3.814060000000000228e-01 -1.673459999999999948e-01 2.937580000000000191e-01 5.202989999999999560e-01 9.159000000000000474e-02 -4.666440000000000032e-01 -5.959170000000000300e-01 -5.832370000000000054e-01 1.886440000000000061e-01 -8.150200000000000500e-02 8.594699999999999562e-02 2.279899999999999982e-02 5.879720000000000502e-01 -4.335370000000000057e-01 2.103879999999999917e-01 -8.808390000000000386e-01 5.346619999999999706e-01 6.427800000000000180e-02 -1.404033000000000087e+00 -4.826630000000000087e-01 4.631000000000000116e-01 1.488629999999999953e-01 8.565300000000000691e-02 2.024299999999999988e-01 5.447099999999999859e-02 5.259500000000000286e-02 -8.928949999999999942e-01 6.952200000000000046e-02 -8.959240000000000537e-01 -4.013390000000000013e-01 4.433799999999999963e-01 -7.907710000000000017e-01 -5.292989999999999640e-01 6.893000000000000516e-02 5.854800000000000282e-02 3.752759999999999985e-01 -3.146000000000000185e-02 -2.170839999999999992e-01 5.756820000000000270e-01 5.082520000000000371e-01 1.070959999999999968e-01 1.293539999999999968e-01 -1.257639999999999869e-01 -3.669780000000000264e-01 -9.105429999999999913e-01 -2.108500000000000096e-01 4.484230000000000160e-01 -6.192500000000000088e-02 -7.990999999999999839e-03 5.245900000000000007e-01 -1.189769999999999994e-01 1.088400000000000062e-01 -1.654619999999999980e-01 5.395210000000000283e-01 -1.418850000000000111e-01 4.996780000000000110e-01 -7.028830000000000355e-01 -1.327218999999999927e+00 -2.902440000000000020e-01 -4.409989999999999744e-01 -1.114780000000000104e+00 4.829820000000000224e-01 2.189550000000000107e-01 -2.245219999999999994e-01 5.911119999999999708e-01 -1.325000000000000067e-01 -1.354829999999999923e-01 2.695679999999999743e-01 5.422219999999999818e-01 -4.995999999999999573e-03 -2.487899999999999834e-02 -1.272119999999999918e-01 1.204569999999999919e+00 7.477019999999999778e-01 -9.103179999999999605e-01 -2.941270000000000273e-01 -8.292000000000000759e-03 3.282399999999999901e-02 -1.192929999999999963e-01 -2.330389999999999961e-01 -6.199350000000000138e-01 2.098119999999999985e-01 -2.448700000000000043e-01 6.886719999999999509e-01 7.752729999999999899e-01 -3.637560000000000238e-01 -5.953549999999999676e-01 5.840100000000000152e-02 -8.902799999999999603e-02 4.424569999999999892e-01 -1.098405000000000076e+00 2.305102999999999902e+00 3.045281999999999822e+00 2.344660000000000077e-01 -8.801799999999999624e-01 -5.946649999999999991e-01 -1.408459999999999990e-01 1.068696000000000090e+00 -1.043209999999999971e+00 -2.253508000000000067e+00 1.319741999999999971e+00 7.669900000000000329e-02 2.815460000000000185e-01 1.973232000000000097e+00 1.894849999999999868e-01 3.913389999999999924e-01 8.907009999999999650e-01 -2.930599999999999872e-02 1.477700000000000020e-02 -1.735949999999999993e-01 -1.308848999999999929e+00 -7.238250000000000517e-01 3.219027999999999778e+00 -2.345543000000000156e+00 2.191999999999999851e-02 1.992520000000000124e-01 -5.298519999999999897e-01 3.109599999999999864e-02 9.848740000000000272e-01 -4.511669999999999847e-01 -1.089852999999999961e+00 7.978530000000000344e-01 -1.955289000000000055e+00 -2.721531000000000144e+00 -1.740745999999999905e+00 -9.908120000000000260e-01 1.419238000000000000e+00 1.544227000000000016e+00 1.149389999999999995e-01 2.253916999999999948e+00 -1.758949999999999958e-01 2.249547999999999881e+00 -1.638276999999999983e+00 1.229257000000000044e+00 -1.875062000000000006e+00 -6.748699999999999699e-01 8.105259999999999687e-01 1.196401999999999965e+00 2.305938999999999961e+00 1.526834000000000024e+00 -2.910778999999999783e+00 -3.156889000000000056e+00 2.322675999999999963e+00 -2.886090000000000044e-01 -1.302569000000000088e+00 -4.322650000000000103e-01 2.281269999999999964e-01 -2.101106999999999836e+00 3.276479999999999948e-01 -3.762179999999999969e-01 1.233903999999999890e+00 9.133149999999999880e-01 -1.599908000000000108e+00 -3.047914000000000012e+00 2.110819999999999919e-01 -8.470060000000000366e-01 -2.485870000000000024e-01 -1.554044999999999899e+00 -6.887119999999999909e-01 -2.811443999999999832e+00 -9.679299999999999571e-01 -7.771219999999999795e-01 1.648908999999999958e+00 -4.013909999999999978e-01 -7.886419999999999542e-01 7.775320000000000009e-01 -4.941490000000000049e-01 9.426539999999999919e-01 -1.822646999999999906e+00 -1.141308999999999907e+00 -1.538380999999999998e+00 4.930689999999999795e-01 2.149569000000000063e+00 -6.758490000000000331e-01 1.972396999999999956e+00 -2.122599999999999834e-02 5.405290000000000372e-01 -9.431509999999999616e-01 1.845841000000000065e+00 -2.571501000000000037e+00 -2.281146000000000118e+00 -8.456460000000000088e-01 1.445203000000000015e+00 -2.109240000000000004e-01 -1.244564000000000004e+00 -8.370199999999999863e-01 -3.469682000000000155e+00 -6.851450000000000040e-01 2.158166000000000029e+00 3.542600000000000193e-01 4.252639999999999754e-01 1.728282000000000096e+00 4.533630000000000160e-01 2.227889999999999870e-01 -7.404230000000000533e-01 1.694949000000000039e+00 -2.945002999999999815e+00 -2.803458000000000006e+00 -2.239421999999999802e+00 1.447222000000000008e+00 -8.456010000000000471e-01 -1.278859999999999997e-01 -1.998350000000000126e-01 -1.065610000000000029e-01 1.109766000000000030e+00 6.371160000000000156e-01 -1.528718999999999939e+00 1.269015000000000004e+00 -1.568584999999999896e+00 2.724962999999999802e+00 -1.517196999999999907e+00 5.357669999999999932e-01 3.160194000000000170e+00 1.982277999999999984e+00 -5.601650000000000240e-01 -1.537738000000000049e+00 2.039620000000000044e-01 2.233529999999999960e-01 -9.218800000000000605e-02 -1.210520000000000068e-01 1.598605000000000054e+00 -9.268480000000000052e-01 3.021179000000000059e+00 1.898146000000000111e+00 1.453627000000000002e+00 1.717660000000000020e-01 8.064799999999999747e-01 -9.007699999999999596e-01 -1.192841999999999958e+00 7.572649999999999659e-01 5.198920000000000208e-01 1.382098999999999966e+00 -7.276249999999999662e-01 -3.110539999999999972e-01 2.594670000000000032e-01 5.188779999999999504e-01 1.139231000000000105e+00 -2.929030000000000244e-01 1.249006999999999978e+00 -2.704710000000000170e-01 1.228077000000000085e+00 -1.095223999999999975e+00 9.062249999999999472e-01 -1.566742999999999997e+00 5.027519999999999767e-01 3.238710000000000200e-01 -2.813769999999999882e-01 -2.993460000000000010e-01 -2.028023000000000131e+00 -4.115739999999999954e-01 -1.667723000000000066e+00 -4.932810000000000250e-01 6.467289999999999983e-01 -1.022551999999999905e+00 -1.782789999999999930e-01 9.648109999999999742e-01 -8.372159999999999602e-01 -9.971910000000000496e-01 4.562840000000000229e-01 -6.050740000000000007e-01 1.126980000000000065e-01 -1.230685000000000029e+00 2.102980000000000127e-01 8.041810000000000347e-01 1.022062999999999944e+00 -6.005800000000000027e-01 3.312510000000000177e-01 1.556340999999999974e+00 1.472630000000000050e-01 1.595789999999999986e-01 5.059919999999999973e-01 5.548330000000000206e-01 -3.713620000000000254e-01 3.408249999999999891e-01 -1.305389999999999884e-01 4.753140000000000143e-01 -3.864529999999999910e-01 3.824119999999999742e-01 1.450500000000000123e-01 6.439319999999999489e-01 -4.105699999999999905e-01 7.867539999999999534e-01 -1.850948999999999955e+00 -1.039909999999999890e+00 -6.309299999999999908e-01 8.313260000000000094e-01 -2.841389999999999749e-01 1.604140000000000010e-01 -5.818079999999999918e-01 -8.454530000000000101e-01 -3.881629999999999803e-01 -5.507760000000000433e-01 -3.474229999999999818e-01 -1.054626000000000063e+00 -1.665979999999999961e-01 3.031190000000000273e-01 1.268000000000000030e-03 -2.173400000000000054e-01 7.169100000000000472e-01 8.461340000000000527e-01 7.666389999999999594e-01 9.018150000000000333e-01 -4.976419999999999733e-01 6.028909999999999547e-01 5.413890000000000091e-01 1.551490000000000091e-01 -3.647730000000000139e-01 2.167509999999999992e-01 3.242289999999999894e-01 8.412840000000000318e-01 4.139720000000000066e-01 6.623520000000000518e-01 -7.270600000000000673e-02 5.001910000000000522e-01 -8.701489999999999503e-01 2.169889999999999874e-01 -4.536120000000000152e-01 -9.967930000000000401e-01 6.187939999999999552e-01 2.181639999999999968e-01 -1.832565000000000000e+00 1.093701999999999952e+00 6.501300000000000134e-02 1.660833000000000004e+00 -2.689489999999999936e-01 9.312350000000000350e-01 -1.737299999999999955e-02 -8.771299999999999930e-02 8.725969999999999560e-01 8.443900000000000017e-02 -1.123790000000000067e-01 -1.521727000000000052e+00 -1.300807000000000047e+00 5.175870000000000193e-01 -1.312063999999999897e+00 -4.697410000000000196e-01 -4.637080000000000091e-01 -1.665049999999999919e+00 1.757209999999999939e+00 -4.714769999999999794e-01 -6.775499999999999579e-02 -1.577900000000000136e-02 -1.730899999999999939e-01 -5.336450000000000360e-01 -7.827129999999999921e-01 7.220000000000000029e-02 -5.027490000000000014e-01 8.133460000000000134e-01 -2.854599999999999846e-02 -6.825179999999999580e-01 -6.258500000000000174e-02 -1.860580000000000012e-01 3.016449999999999965e-01 -1.724900000000000044e-02 -1.751000000000000056e-01 1.340993000000000102e+00 -1.825142999999999960e+00 8.741149999999999753e-01 -9.370239999999999680e-01 -9.793359999999999843e-01 8.951599999999999835e-02 -1.358278000000000096e+00 -4.807939999999999992e-01 7.871190000000000131e-01 -3.348929999999999962e-01 5.231800000000000339e-02 -2.042174999999999851e+00 -5.640429999999999611e-01 1.524129999999999985e+00 8.557869999999999644e-01 -3.567779999999999840e-01 1.001567000000000096e+00 -1.652240000000000097e-01 3.590659999999999963e-01 -1.180201000000000056e+00 2.601899999999999769e-01 -1.200688999999999895e+00 -4.892230000000000190e-01 1.248459999999999986e-01 -3.685669999999999780e-01 5.513439999999999452e-01 1.321855000000000002e+00 -2.065593999999999930e+00 1.233795999999999893e+00 6.057010000000000449e-01 -3.962500000000000050e-02 -2.943230000000000013e-01 -8.743840000000000501e-01 1.673937000000000008e+00 -1.553150000000000086e-01 8.828139999999999876e-01 8.087269999999999737e-01 1.018969000000000014e+00 -2.017299999999999927e-01 -3.256459999999999910e-01 -5.926649999999999974e-01 8.495200000000000529e-01 -5.386950000000000349e-01 -2.143809999999999882e-01 1.087623999999999924e+00 7.605129999999999946e-01 1.622478000000000087e+00 -1.110073000000000087e+00 -1.830948999999999938e+00 2.572473000000000010e+00 -9.851290000000000324e-01 5.211179999999999701e-01 -1.695635999999999921e+00 3.339999999999999870e-04 5.101529999999999676e-01 5.223980000000000290e-01 1.339447999999999972e+00 -1.632117999999999958e+00 1.467551999999999968e+00 1.193362999999999952e+00 -4.621160000000000267e-01 -1.237589999999999940e-01 -2.421750000000000014e-01 -3.055789999999999895e-01 5.853380000000000249e-01 5.736809999999999965e-01 -7.955680000000000529e-01 6.956419999999999826e-01 2.041290000000000049e-01 1.334143999999999997e+00 -7.786720000000000308e-01 -5.097700000000000148e-02 -2.043969999999999954e-01 1.759824000000000055e+00 -3.480170000000000208e-01 1.154593999999999898e+00 -3.864190000000000125e-01 2.445660000000000056e-01 -6.558380000000000321e-01 -1.357609999999999928e-01 2.037370000000000014e-01 9.476310000000000011e-01 1.226776000000000089e+00 -4.164129999999999776e-01 1.913499999999999923e-01 1.470425000000000093e+00 3.889619999999999744e-01 -1.378489999999999993e-01 2.115975000000000161e+00 9.914699999999999902e-02 5.286699999999999733e-02 -1.523921000000000081e+00 -2.741410000000000236e-01 1.772340000000000027e-01 6.098149999999999959e-01 6.860960000000000392e-01 9.216199999999999393e-02 -1.026780000000000054e-01 -2.689710000000000156e-01 -1.554035999999999973e+00 -6.219999999999999973e-01 -5.768769999999999731e-01 2.854059999999999930e-01 3.303719999999999990e-01 -1.089331000000000049e+00 -3.701499999999999790e-01 -1.016388000000000069e+00 -3.512810000000000099e-01 -1.561225000000000085e+00 1.384781999999999957e+00 3.194899999999999962e-01 5.589309999999999556e-01 6.792300000000000004e-01 1.190760000000000041e+00 -1.430954000000000059e+00 -2.350379999999999969e-01 -6.139000000000000012e-01 3.436480000000000090e-01 -4.025449999999999862e-01 -9.370669999999999833e-01 -1.541309000000000040e+00 5.046960000000000335e-01 1.090827999999999909e+00 -1.655998999999999999e+00 -6.413900000000000157e-02 1.534210000000000018e-01 1.856170000000000042e-01 2.765949999999999798e-01 -1.910171999999999981e+00 1.218630000000000102e+00 1.181640999999999941e+00 9.381490000000000107e-01 -1.178519999999999984e-01 1.408122000000000096e+00 1.370899999999999896e-01 -1.223759000000000041e+00 -1.122110000000000052e-01 -1.076994000000000007e+00 1.188175999999999899e+00 1.805714999999999959e+00 9.867780000000000440e-01 -1.468500000000000014e-02 -5.820509999999999851e-01 -1.281055999999999973e+00 5.049960000000000004e-01 1.084211000000000036e+00 1.472409000000000079e+00 -2.314529999999999921e-01 1.389459999999999862e-01 3.349679999999999880e-01 1.842797000000000018e+00 -9.942870000000000319e-01 4.397600000000000120e-02 5.848899999999999932e-02 -3.148139999999999827e-01 9.662800000000000278e-01 4.440959999999999908e-01 -1.924289999999999889e-01 1.655864000000000003e+00 -9.123199999999999366e-02 -2.385409999999999808e+00 8.303800000000000070e-02 -7.124150000000000205e-01 -1.642220000000000069e-01 -1.027063000000000059e+00 -2.200110000000000121e-01 -6.168949999999999712e-01 -1.540549999999999975e-01 1.885385000000000089e+00 -7.985160000000000036e-01 8.798570000000000002e-01 -7.495100000000000373e-02 -2.994280000000000275e-01 -3.335948999999999831e+00 -4.256079999999999863e-01 -5.844850000000000323e-01 9.210970000000000546e-01 -7.911599999999999744e-01 -3.377979999999999872e-01 2.272599999999999898e-01 -5.702669999999999684e-01 8.386719999999999731e-01 -2.277150000000000007e-01 8.771099999999999453e-01 8.038870000000000182e-01 7.732449999999999601e-01 2.908709999999999907e-01 -1.105779999999999957e-01 1.623124999999999929e+00 1.619065999999999894e+00 -1.579193999999999987e+00 -2.000840000000000118e-01 1.482620000000000049e-01 4.725309999999999788e-01 1.648306999999999967e+00 1.168662000000000090e+00 7.846710000000000074e-01 -1.623607000000000022e+00 7.973080000000000167e-01 -4.406680000000000041e-01 -1.301096000000000030e+00 6.700420000000000265e-01 -1.353574999999999973e+00 -1.363653999999999922e+00 2.632309999999999928e-01 1.261711000000000027e+00 7.778180000000000094e-01 1.279490000000000016e+00 6.755569999999999631e-01 8.208579999999999766e-01 -1.651146999999999920e+00 7.014230000000000187e-01 -3.767300000000000093e-01 -1.154592000000000063e+00 -1.852131999999999890e+00 1.682450000000000001e+00 2.527051000000000158e+00 -1.429610000000000047e-01 -1.440492000000000106e+00 -2.633909999999999862e-01 -3.746749999999999803e-01 -8.991989999999999705e-01 -2.999499999999999944e-01 7.227500000000000036e-01 3.242722000000000104e+00 2.545493000000000006e+00 -5.069000000000000172e-01 2.916799999999999948e-01 -1.382487000000000021e+00 -2.322210000000000107e-01 -5.078040000000000331e-01 1.857159999999999922e-01 -1.658689999999999887e-01 8.233300000000000340e-02 -7.395599999999999397e-02 9.950970000000000093e-01 -8.952029999999999710e-01 -1.863300000000000026e-02 -7.189219999999999500e-01 1.966474999999999973e+00 2.525430000000000175e-01 -4.322440000000000171e-01 2.716950000000000198e-01 4.776830000000000243e-01 -6.320639999999999592e-01 -8.430769999999999653e-01 3.157849999999999824e-01 8.782199999999999729e-02 1.386160000000000059e+00 -1.203495999999999899e+00 -3.732989999999999919e-01 1.650490000000000013e+00 -1.178598000000000035e+00 -1.001299999999999968e-01 2.320286999999999988e+00 -1.842071000000000014e+00 4.828100000000000169e-01 -5.103509999999999991e-01 -1.513879999999999948e-01 -1.155794999999999906e+00 6.252010000000000067e-01 1.569344000000000072e+00 -5.888619999999999965e-01 2.554819999999999869e-01 6.869119999999999671e-01 -2.286792000000000158e+00 9.077599999999999558e-02 -3.177180000000000004e-01 2.373699999999999977e-01 -1.140594000000000108e+00 -7.404570000000000318e-01 -6.140809999999999880e-01 3.170609999999999817e-01 1.180123999999999951e+00 3.332329000000000097e+00 4.988440000000000096e-01 -4.895909999999999984e-01 1.833700000000000108e+00 5.083790000000000253e-01 1.974930000000000019e-01 6.045570000000000110e-01 1.304747000000000101e+00 5.730169999999999986e-01 -7.814130000000000242e-01 5.902060000000000084e-01 -1.821059999999999901e-01 1.178949000000000025e+00 -9.705749999999999655e-01 -1.154549000000000047e+00 -4.107529999999999792e-01 -1.218917999999999946e+00 4.243100000000000344e-02 1.282270000000000076e-01 -6.845609999999999751e-01 6.456070000000000420e-01 1.960001000000000104e+00 -1.143046999999999924e+00 -1.235244000000000009e+00 7.357620000000000271e-01 1.623199999999999921e-01 -6.809849999999999515e-01 -2.233439999999999870e-01 -2.210239999999999982e-01 3.433109999999999773e-01 -1.417430000000000079e-01 -2.309509999999999896e-01 4.275209999999999844e-01 -8.876680000000000126e-01 -1.085858999999999908e+00 1.524612000000000078e+00 -1.083126000000000033e+00 3.926700000000000190e-01 -5.260850000000000248e-01 -4.479819999999999913e-01 1.452636000000000038e+00 3.888150000000000217e-01 4.978000000000000203e-01 -1.629637000000000002e+00 7.619799999999999907e-01 1.552937000000000012e+00 -3.718020000000000214e-01 4.982699999999999907e-01 -5.539450000000000207e-01 -5.947800000000000309e-02 3.616199999999999970e-01 -8.974929999999999852e-01 -1.222469999999999946e+00 -1.210644000000000053e+00 2.643630000000000146e-01 1.034996000000000027e+00 3.208269999999999733e-01 -2.066221999999999781e+00 -1.252400000000000041e-02 9.622579999999999467e-01 9.989689999999999959e-01 -2.049060000000000048e-01 3.500099999999999739e-02 6.155359999999999721e-01 4.277949999999999808e-01 -1.401292999999999900e+00 -2.075349999999999973e-01 -1.111134000000000066e+00 -1.587221999999999911e+00 7.369569999999999732e-01 9.181869999999999754e-01 -1.801389999999999936e-01 -3.256359999999999810e-01 1.256712000000000051e+00 4.975000000000000255e-02 1.321941999999999950e+00 1.432976000000000028e+00 1.396820000000000006e-01 -1.793962000000000057e+00 -3.142600000000000254e-02 1.178344999999999976e+00 -4.369720000000000271e-01 -5.890990000000000393e-01 3.328840000000000132e-01 -2.670742999999999867e+00 -2.863959999999999839e-01 6.169810000000000016e-01 -2.428557000000000077e+00 -1.699199999999999877e-01 1.579061999999999966e+00 1.486515999999999948e+00 -1.001920000000000033e-01 -4.805559999999999832e-01 1.195046999999999970e+00 1.676660000000000095e-01 -1.620276999999999967e+00 1.267600000000000116e-01 1.497767000000000071e+00 -5.747149999999999759e-01 -2.148740000000000094e-01 -4.655329999999999746e-01 8.002200000000000424e-01 -1.166599999999999998e-01 -7.157299999999999773e-02 -6.459299999999999764e-02 7.405629999999999713e-01 7.198590000000000266e-01 1.306715000000000071e+00 -4.390450000000000186e-01 9.686409999999999743e-01 2.824679999999999969e-01 3.577219999999999844e-01 2.759289999999999798e-01 -2.492810000000000026e-01 -4.865129999999999733e-01 -6.952739999999999476e-01 1.495721999999999996e+00 1.852999999999999925e-01 -9.323460000000000081e-01 -1.144257000000000080e+00 7.758730000000000349e-01 -1.538130000000000053e-01 -1.295570000000000055e-01 2.491099999999999981e-01 9.656080000000000219e-01 8.687380000000000102e-01 -1.049411000000000094e+00 2.051146000000000136e+00 -1.041744999999999921e+00 -9.020000000000000240e-03 -8.810019999999999518e-01 -4.680759999999999921e-01 3.597529999999999895e-01 1.429726999999999970e+00 -6.384870000000000267e-01 5.782279999999999642e-01 2.070950000000000013e-01 -1.077690000000000037e-01 3.996399999999999952e-02 -4.700440000000000174e-01 6.294389999999999707e-01 1.479530999999999930e+00 6.087000000000000396e-03 -1.065228999999999981e+00 4.940649999999999764e-01 5.943990000000000107e-01 -9.542920000000000291e-01 -1.525738000000000039e+00 4.501140000000000141e-01 1.323873999999999995e+00 