-1.656562101640000037e+03
-1.663052429630000006e+03
-1.664380335920000107e+03
-1.661689074659999960e+03
-1.666885486590000028e+03
-1.661865580650000084e+03
-1.659848151379999990e+03
-1.664635489389999975e+03
-1.659555830210000067e+03
-1.661648766069999965e+03
-1.663195595500000081e+03
-1.656213961109999900e+03
-1.660530379009999933e+03
-1.661052494940000088e+03
-1.662701484050000090e+03
-1.657898601999999983e+03
-1.663119295760000114e+03
-1.663662097549999999e+03
-1.656451567059999888e+03
-1.666972964499999989e+03
-1.662716347889999952e+03
-1.660374157109999942e+03
-1.658251652270000022e+03
-1.658687791070000003e+03
-1.661526467299999922e+03
-1.661025108280000040e+03
-1.660573375429999942e+03
-1.663283886440000060e+03
-1.664190097050000077e+03
-1.660346039389999987e+03
-1.660831472280000071e+03
-1.682066235569999890e+03
-1.660442418860000089e+03
-1.659221510189999890e+03
-1.658590322250000099e+03
-1.660462671349999937e+03
-1.662808002750000014e+03
-1.665439907559999938e+03
-1.663307681929999944e+03
-1.681586316959999976e+03
-1.662155064139999922e+03
-1.660521499270000049e+03
-1.662884717200000068e+03
-1.664038140670000075e+03
-1.663280501369999911e+03
-1.664604972099999941e+03
-1.660799358609999899e+03
-1.656516102609999962e+03
-1.658313638529999935e+03
-1.667807241140000087e+03
-1.661132848839999951e+03
-1.660544826990000047e+03
-1.658490591989999984e+03
-1.668240130429999908e+03
-1.659275754270000107e+03
-1.661413642790000040e+03
-1.662448780469999974e+03
-1.658313594839999951e+03
-1.656737809559999960e+03
-1.655531793139999991e+03
-1.663767130760000100e+03
-1.661364391600000090e+03
-1.665589871249999987e+03
-1.659554564009999922e+03
-1.661007173689999945e+03
-1.664952811870000005e+03
-1.665176640639999960e+03
-1.664181705299999976e+03
-1.662929583739999998e+03
-1.663665271190000112e+03
-1.660196103340000036e+03
-1.659687837810000019e+03
-1.658999462309999899e+03
-1.662877367829999912e+03
-1.658542498880000039e+03
-1.658136286550000023e+03
-1.663431097160000036e+03
-1.658117554969999901e+03
-1.662286503439999933e+03
-1.663210762140000043e+03
-1.667597183699999960e+03
-1.666681953660000090e+03
-1.679037356379999892e+03
-1.680863388940000050e+03
-1.666169030439999915e+03
-1.663792598089999956e+03
-1.659109493659999998e+03
-1.659375618399999894e+03
-1.659321578450000061e+03
-1.665673722490000046e+03
-1.661416902519999894e+03
-1.655961127459999943e+03
-1.658044191859999955e+03
-1.660889276579999887e+03
-1.655532948779999970e+03
-1.658758354329999975e+03
-1.659684034149999889e+03
-1.672685165469999902e+03
-1.680739861020000035e+03
-1.658125119620000078e+03
-1.662880533889999924e+03
-1.662158967350000012e+03
-1.664081475599999976e+03
-1.655995623940000087e+03
-1.660625599380000040e+03
-1.658058233010000095e+03
-1.678539048009999988e+03
-1.664446805240000003e+03
-1.665375190460000113e+03
-1.659938581890000023e+03
-1.655238750210000035e+03
-1.663187059090000048e+03
-1.682246611399999892e+03
-1.658721951270000091e+03
-1.660816940969999905e+03
-1.660142798930000026e+03
-1.663835779369999955e+03
