-1.664051795699999957e+03
-1.680619180520000100e+03
-1.662385645629999999e+03
-1.659343261640000037e+03
-1.656969277149999925e+03
-1.654814436809999961e+03
-1.658347167290000016e+03
-1.681310041160000083e+03
-1.661993067339999925e+03
-1.664977690010000060e+03
-1.656089133729999958e+03
-1.657091785600000094e+03
-1.659006923870000037e+03
-1.656632663869999988e+03
-1.680226032799999984e+03
-1.664164126540000098e+03
-1.662591450189999932e+03
-1.661924840939999967e+03
-1.661063298829999894e+03
-1.660972186069999907e+03
-1.680665927990000000e+03
-1.665941435729999966e+03
-1.663700674819999904e+03
-1.676032259199999999e+03
-1.657760185849999971e+03
-1.655370646390000047e+03
-1.664290471730000036e+03
-1.664965995759999942e+03
-1.660675587709999945e+03
-1.662810388390000071e+03
-1.666841676609999922e+03
-1.677381584420000081e+03
-1.666124792309999975e+03
-1.658544025279999914e+03
-1.661497822309999947e+03
-1.664713829970000006e+03
-1.661406721589999961e+03
-1.660080421569999999e+03
-1.693631886339999937e+03
-1.663765062619999981e+03
-1.661866429559999915e+03
-1.663530999840000050e+03
-1.661756565440000031e+03
-1.653740524349999987e+03
-1.661585641290000012e+03
-1.660455033340000000e+03
-1.652651520489999939e+03
-1.657841600219999918e+03
-1.656894186250000075e+03
-1.654021286899999950e+03
-1.662654225859999997e+03
-1.659928290309999966e+03
-1.664720712600000070e+03
-1.688899935120000009e+03
-1.679782449090000000e+03
-1.660984173699999928e+03
-1.661374488189999965e+03
-1.664681501530000105e+03
-1.658359558059999927e+03
-1.664469471390000081e+03
-1.652360578380000106e+03
-1.661874474969999937e+03
-1.663814561240000103e+03
-1.662118886409999959e+03
-1.654806152350000048e+03
-1.659708629909999900e+03
-1.652107102940000004e+03
-1.655047744749999993e+03
-1.660104458690000001e+03
-1.680717217879999907e+03
-1.660306371970000100e+03
-1.661090307989999928e+03
-1.676408818529999962e+03
-1.664092703430000029e+03
-1.665001535139999987e+03
-1.664775512310000067e+03
-1.670241121459999931e+03
-1.660648676539999997e+03
-1.664805782540000109e+03
-1.659029991939999945e+03
-1.679648613229999910e+03
-1.691868082389999927e+03
-1.684839557320000040e+03
-1.679658287030000110e+03
-1.663342900229999941e+03
-1.660095051580000018e+03
-1.659060572650000040e+03
-1.660589005320000069e+03
-1.656241551029999982e+03
-1.660952265359999956e+03
-1.680919332440000062e+03
-1.663396349979999968e+03
-1.680988625149999962e+03
-1.667118391759999895e+03
-1.664949454060000107e+03
-1.666277797400000054e+03
-1.665946833819999938e+03
-1.679711552400000073e+03
-1.677050352499999917e+03
-1.659105554790000042e+03
-1.658860392029999957e+03
-1.665763596539999980e+03
-1.665432390469999973e+03
-1.657348910769999975e+03
-1.663507212909999907e+03
-1.654154862589999993e+03
-1.661844197899999926e+03
-1.679196145229999956e+03
-1.660906955740000058e+03
-1.657364958090000073e+03
-1.655377631099999917e+03
-1.663421698549999974e+03
-1.665299121629999945e+03
-1.678888822950000076e+03
-1.664178030499999977e+03
-1.653388322960000096e+03
-1.660387408450000066e+03
-1.658206357309999930e+03
-1.661095535319999954e+03
-1.661832051659999934e+03
-1.661934741190000068e+03
-1.658395826129999932e+03
-1.654771456089999901e+03
-1.659180619400000069e+03
-1.660840073260000054e+03
-1.660780803840000090e+03
-1.663220527640000000e+03
-1.655868344179999895e+03
-1.658439567310000029e+03
-1.675909816719999981e+03
-1.657966799009999932e+03
