-8.523600000000000620e-02 1.477549999999999975e-01 -2.511829999999999896e-01 3.935660000000000269e-01 2.483080000000000009e-01 5.735699999999999826e-02 9.072189999999999976e-01 2.074110000000000120e-01 2.301860000000000017e-01 6.096800000000000136e-02 3.900390000000000246e-01 3.173320000000000030e-01 -8.018239999999999812e-01 -6.183920000000000528e-01 -7.970070000000000210e-01 4.364190000000000014e-01 1.371630000000000071e-01 -6.686530000000000529e-01 -5.293179999999999552e-01 5.025859999999999772e-01 1.095970000000000000e-01 -1.367690000000000017e-01 2.381949999999999901e-01 -8.909999999999999518e-03 2.259200000000000097e-02 -2.966610000000000080e-01 1.793679999999999997e-01 4.700829999999999731e-01 -4.090230000000000254e-01 -3.708040000000000225e-01 7.391000000000000347e-02 1.089320000000000010e-01 3.023400000000000046e-02 -4.062359999999999860e-01 1.326081000000000065e+00 -3.248280000000000056e-01 -5.789119999999999822e-01 -3.229699999999999932e-02 -8.116200000000000081e-01 -2.289009999999999934e-01 -1.854449999999999987e-01 4.273899999999999921e-02 -2.876259999999999928e-01 7.495770000000000488e-01 -4.134149999999999769e-01 3.449220000000000064e-01 4.768910000000000093e-01 -4.669399999999999940e-02 -9.520000000000000684e-02 4.186949999999999839e-01 -4.346960000000000268e-01 -5.390979999999999661e-01 1.870030000000000026e-01 5.850299999999999945e-02 -1.763530000000000098e-01 -6.836560000000000414e-01 -6.977409999999999446e-01 2.720790000000000153e-01 2.910789999999999766e-01 8.899200000000000166e-02 7.629999999999999630e-03 8.964119999999999866e-01 -7.120600000000000540e-02 1.276056999999999997e+00 1.734199999999999978e-02 1.087727000000000110e+00 1.376330000000000053e-01 2.590800000000000047e-02 2.398830000000000129e-01 -2.205020000000000036e-01 5.581580000000000430e-01 -9.104349999999999943e-01 2.102620000000000045e-01 2.164999999999999911e-02 -2.695790000000000131e-01 4.112939999999999929e-01 -3.165720000000000200e-01 -8.162500000000000311e-02 6.110240000000000116e-01 -4.062589999999999812e-01 3.081899999999999917e-02 7.726779999999999760e-01 3.504789999999999850e-01 -5.916550000000000420e-01 -3.364299999999999929e-02 -4.234299999999999869e-02 -3.192389999999999950e-01 -2.595390000000000197e-01 -3.423669999999999769e-01 3.381359999999999921e-01 9.766010000000000524e-01 -5.024140000000000272e-01 6.765029999999999655e-01 3.129339999999999899e-01 -1.589949999999999974e-01 2.156230000000000091e-01 1.266999999999999897e-03 -1.719320000000000015e-01 1.408600000000000130e-01 -1.176040000000000002e-01 -2.209720000000000018e-01 2.054110000000000102e-01 -2.655989999999999740e-01 7.544199999999999517e-02 5.209999999999999788e-04 -1.100443000000000060e+00 7.416230000000000322e-01 -3.678299999999999903e-01 9.268700000000000550e-02 1.262240000000000029e-01 -1.867850000000000066e-01 -1.309699999999999927e-02 -6.934400000000000286e-02 6.088639999999999608e-01 -4.932889999999999775e-01 -5.541310000000000402e-01 -4.037410000000000165e-01 5.014099999999999807e-02 -2.895079999999999876e-01 -8.243100000000000427e-02 8.969740000000000490e-01 1.621980000000000088e-01 -1.105709000000000053e+00 2.778900000000000259e-01 -4.940069999999999739e-01 -3.527500000000000080e-02 -1.122889999999999999e-01 2.519150000000000000e-01 3.020979999999999777e-01 -3.471210000000000129e-01 9.923999999999999488e-02 -3.732739999999999947e-01 6.286610000000000253e-01 1.204159999999999953e-01 5.095070000000000432e-01 3.894299999999999845e-02 1.188229999999999981e-01 -1.878990000000000105e-01 1.704350000000000032e-01 5.929830000000000378e-01 4.925789999999999891e-01 2.290860000000000118e-01 -5.353930000000000078e-01 8.563119999999999621e-01 -5.408960000000000434e-01 -4.857199999999999851e-01 -2.347099999999999881e-02 4.907329999999999748e-01 3.027999999999999876e-03 1.583090000000000053e-01 -2.648699999999999943e-01 -5.931750000000000078e-01 -2.248479999999999923e-01 1.188690000000000024e-01 -7.257160000000000277e-01 -9.176700000000000135e-02 8.174120000000000275e-01 4.299510000000000276e-01 -8.224160000000000359e-01 4.504859999999999975e-01 -4.171009999999999995e-01 -2.382730000000000126e-01 4.385850000000000026e-01 -2.262530000000000097e-01 -1.378070000000000128e-01 -2.403409999999999991e-01 -1.662525999999999948e+00 -6.243800000000000044e-02 -3.205350000000000144e-01 -9.169399999999999773e-02 3.705399999999999805e-01 -6.130200000000000093e-01 2.640430000000000277e-01 5.968620000000000037e-01 -4.369999999999999753e-03 3.306890000000000107e-01 -3.898849999999999816e-01 1.113666999999999963e+00 -3.829359999999999986e-01 5.937900000000000122e-02 -1.481149999999999967e-01 -9.972300000000000608e-02 -5.757139999999999480e-01 8.398069999999999702e-01 1.646529999999999938e-01 -6.726159999999999917e-01 -2.556450000000000111e-01 3.664160000000000195e-01 -1.045630000000000032e-01 -2.929640000000000022e-01 -1.912900999999999962e+00 6.598100000000000076e-01 3.933789999999999787e-01 4.091460000000000097e-01 -3.333659999999999957e-01 -1.628010000000000013e-01 4.199300000000000255e-02 1.715980000000000005e-01 1.859129999999999949e-01 -4.105420000000000180e-01 -1.857500000000000123e-02 4.740320000000000089e-01 -1.977839999999999876e-01 -3.876979999999999871e-01 -1.194485000000000019e+00 6.739500000000000490e-01 4.201980000000000159e-01 -1.446500000000000043e-02 -1.145766000000000062e+00 -1.085401999999999978e+00 5.566699999999999982e-01 -1.921718000000000037e+00 6.342710000000000292e-01 -7.170659999999999812e-01 3.514189999999999814e-01 -7.423000000000000431e-02 -1.759099999999999900e-02 -5.232869999999999466e-01 -5.418599999999999806e-02 3.808090000000000086e-01 -3.042019999999999724e-01 -3.539999999999999813e-01 1.477099999999999941e-02 1.988200000000000037e-02 -2.740810000000000191e-01 -1.284230000000000094e-01 -5.719239999999999879e-01 -2.588599999999999929e-02 -2.488299999999999887e-02 6.085580000000000434e-01 1.138400000000000002e-02 -9.125029999999999530e-01 1.136130000000000057e-01 -7.558110000000000106e-01 -2.876130000000000075e-01 -6.365490000000000315e-01 -2.374080000000000079e-01 1.680919999999999914e-01 7.195939999999999559e-01 -4.126610000000000000e-01 -4.450850000000000084e-01 -2.774499999999999744e-01 3.697920000000000096e-01 4.641020000000000145e-01 -3.121809999999999863e-01 -1.922280000000000100e-01 -2.412449999999999872e-01 9.943999999999999714e-03 -7.140199999999999325e-02 -2.965260000000000118e-01 7.050149999999999473e-01 4.013630000000000253e-01 2.091030000000000111e-01 -1.379415999999999976e+00 -5.788489999999999469e-01 2.226569999999999938e-01 -4.339359999999999884e-01 -2.026799999999999990e-01 5.886559999999999571e-01 -2.650259999999999838e-01 -1.097647000000000039e+00 2.589400000000000035e-02 -9.931820000000000093e-01 4.416530000000000178e-01 5.155110000000000525e-01 -5.117709999999999759e-01 -3.601710000000000189e-01 1.816820000000000102e-01 -2.522630000000000150e-01 5.544360000000000399e-01 -1.687059999999999949e-01 6.525469999999999882e-01 5.357790000000000052e-01 -9.766029999999999989e-01 -2.327649999999999997e-01 8.683799999999999852e-02 7.106160000000000254e-01 2.173760000000000137e-01 -2.543279999999999985e-01 -1.107559999999999933e-01 3.771019999999999928e-01 6.148010000000000419e-01 2.793939999999999757e-01 1.115109999999999990e-01 -7.566299999999999415e-02 -2.089500000000000038e-02 3.088049999999999962e-01 -1.436939999999999884e-01 -1.450380000000000003e-01 2.771649999999999947e-01 -6.012600000000000167e-01 2.617140000000000022e-01 5.426950000000000385e-01 6.270959999999999868e-01 -2.574380000000000002e-01 -7.893189999999999928e-01 -1.520640000000000047e-01 -4.888100000000000084e-02 -4.402440000000000242e-01 1.671950000000000103e-01 1.575419999999999876e-01 7.589700000000000613e-02 3.195279999999999787e-01 9.091369999999999729e-01 -4.231000000000000039e-02 -6.105660000000000531e-01 1.748250000000000082e-01 4.458409999999999873e-01 4.172049999999999925e-01 -4.954779999999999740e-01 4.186650000000000094e-01 4.155550000000000077e-01 -1.042779999999999957e-01 -9.684070000000000178e-01 1.495859999999999967e-01 -2.734219999999999984e-01 1.013379999999999947e+00 -4.699389999999999956e-01 1.511754000000000042e+00 4.053300000000000236e-01 -1.014639999999999986e-01 1.181979999999999975e-01 -8.895220000000000349e-01 2.039090000000000069e-01 -2.056620000000000115e-01 -2.000000000000000164e-05 -4.743439999999999879e-01 -7.628200000000000258e-02 1.385780000000000067e-01 8.954199999999999660e-02 -2.226090000000000013e-01 -1.086057999999999968e+00 -1.959909999999999985e-01 1.222963000000000022e+00 1.079112000000000071e+00 1.143850000000000006e-01 -1.187599999999999940e-02 -2.233570000000000000e-01 -1.379849999999999965e-01 -7.088229999999999809e-01 3.424229999999999774e-01 2.814499999999999988e-02 4.017819999999999725e-01 -3.570809999999999818e-01 -3.833199999999999802e-02 5.332740000000000258e-01 2.282510000000000094e-01 -6.985600000000000143e-02 1.438210000000000044e-01 -4.659889999999999866e-01 5.183560000000000390e-01 4.979109999999999925e-01 -1.847979999999999901e-01 4.134999999999999787e-01 -2.535200000000000231e-01 5.970000000000000306e-02 -7.069180000000000463e-01 -8.587100000000000288e-02 -1.414450999999999903e+00 5.785550000000000415e-01 -8.314660000000000384e-01 3.803380000000000094e-01 -4.897340000000000027e-01 2.195900000000000074e-01 1.437789999999999901e-01 7.411000000000000053e-03 4.143029999999999768e-01 -1.111420000000000047e-01 -6.649639999999999995e-01 6.257150000000000212e-01 3.232140000000000013e-01 -1.083390000000000047e-01 -1.536270000000000135e-01 7.891600000000000004e-02 -1.309250000000000136e-01 6.390329999999999622e-01 1.822769999999999946e-01 3.492850000000000121e-01 4.611129999999999951e-01 6.391489999999999672e-01 -3.730459999999999887e-01 -3.439119999999999955e-01 -7.378940000000000499e-01 9.333299999999999930e-01 -2.274670000000000025e-01 -2.570839999999999792e-01 2.441069999999999907e-01 -1.010009999999999936e-01 -1.005889999999999951e+00 -2.511999999999999997e-02 -2.625279999999999836e-01 2.941219999999999946e-01 3.454189999999999761e-01 -4.179109999999999769e-01 1.530410000000000104e-01 4.802569999999999895e-01 -2.024300000000000058e-02 4.573940000000000228e-01 -3.143349999999999755e-01 1.112054000000000098e+00 -2.441689999999999972e-01 1.744630000000000070e-01 1.215490000000000043e-01 3.370909999999999740e-01 -1.180039999999999978e-01 -2.186790000000000123e-01 6.987210000000000365e-01 -9.090439999999999632e-01 4.515719999999999734e-01 -2.906659999999999799e-01 7.859690000000000287e-01 -3.655149999999999788e-01 3.763799999999999785e-02 1.749169999999999892e-01 -4.616129999999999955e-01 3.424320000000000142e-01 6.211799999999999961e-02 -5.746149999999999869e-01 -8.449900000000000466e-02 4.165800000000000058e-02 3.007699999999999818e-01 2.931440000000000157e-01 -3.367029999999999745e-01 8.122899999999999565e-02 -6.519800000000000595e-02 -7.442469999999999919e-01 -4.922969999999999846e-01 1.086055999999999910e+00 8.762000000000000691e-03 -4.743339999999999779e-01 -1.045171999999999990e+00 -4.819180000000000130e-01 5.425399999999999667e-02 -4.674030000000000129e-01 -2.890150000000000219e-01 1.338650000000000118e-01 -1.045910000000000034e-01 -7.676020000000000065e-01 3.486349999999999727e-01 -9.147969999999999713e-01 1.056639999999999940e-01 -7.488699999999999524e-02 1.635929999999999884e-01 -1.793859999999999899e-01 -4.308300000000000324e-02 -5.177329999999999988e-01 -3.820049999999999835e-01 1.286629999999999996e-01 -1.014669000000000043e+00 2.251410000000000078e-01 -3.191140000000000088e-01 -6.982859999999999623e-01 3.009820000000000273e-01 3.743830000000000213e-01 -1.532400000000000082e-02 6.532700000000000173e-01 3.400039999999999729e-01 5.649800000000000377e-01 3.643089999999999939e-01 1.955069999999999864e-01 -1.360899999999999888e-01 2.714090000000000114e-01 -4.060590000000000033e-01 -4.867500000000000299e-02 6.373980000000000201e-01 3.725249999999999950e-01 1.676989999999999870e-01 -7.922099999999999975e-02 -2.676640000000000130e-01 -2.755000000000000070e-03 -2.677649999999999753e-01 -7.756210000000000049e-01 -1.360280000000000100e-01 1.426060000000000105e-01 -2.708019999999999872e-01 -5.355300000000000338e-02 3.209929999999999728e-01 -7.650999999999999815e-03 -6.490179999999999838e-01 -1.670800000000000063e-02 -2.116805999999999965e+00 -1.037007000000000012e+00 -3.050410000000000066e-01 -2.461250000000000104e-01 1.108627999999999947e+00 -9.507919999999999705e-01 8.461429999999999785e-01 1.285015000000000018e+00 3.751950000000000007e-01 -4.178069999999999840e-01 -1.679170999999999969e+00 1.076678999999999942e+00 -1.259500000000000064e-01 1.091469000000000023e+00 6.810060000000000002e-01 1.525049000000000099e+00 3.208409999999999873e-01 4.928290000000000171e-01 1.742755999999999972e+00 -6.995249999999999524e-01 -2.881110000000000060e+00 1.614210000000000089e-01 -2.356659999999999866e-01 4.764749999999999819e-01 7.201629999999999976e-01 9.913939999999999975e-01 2.328989999999999949e-01 2.310878000000000210e+00 -1.967480000000000062e-01 2.291854999999999976e+00 -8.522440000000000015e-01 -1.321086999999999900e+00 -1.765941999999999901e+00 1.045962000000000058e+00 -1.357073999999999891e+00 3.878530000000000033e-01 -8.807070000000000176e-01 3.183863000000000110e+00 -8.646519999999999762e-01 2.954852999999999952e+00 1.899219999999999908e+00 7.666420000000000456e-01 1.666619000000000073e+00 5.531080000000000441e-01 1.134646000000000043e+00 1.322354000000000029e+00 -2.106514999999999915e+00 1.749538999999999955e+00 -2.627221000000000029e+00 3.533574000000000215e+00 1.195710000000000051e+00 -1.174911999999999956e+00 -1.951410000000000089e-01 -5.364640000000000519e-01 6.784900000000000653e-02 -1.814437000000000078e+00 -1.337722999999999995e+00 -1.276224999999999943e+00 6.313630000000000075e-01 1.273919999999999941e+00 1.219979999999999953e-01 6.214709999999999956e-01 1.040615000000000068e+00 -2.613860000000000072e-01 -1.600124000000000102e+00 6.360010000000000385e-01 -1.719815000000000094e+00 -3.381640000000000201e-01 -6.285739999999999661e-01 -6.459479999999999666e-01 7.461860000000000159e-01 -1.034583999999999948e+00 -1.509010000000000074e-01 2.308138000000000023e+00 -2.655371999999999844e+00 5.388389999999999569e-01 -7.056130000000000457e-01 1.961824000000000012e+00 -1.280777000000000054e+00 5.153469999999999995e-01 3.914340000000000042e-01 -6.145779999999999577e-01 7.446819999999999551e-01 1.549269000000000007e+00 1.936239000000000043e+00 -8.049269999999999481e-01 1.104923000000000100e+00 1.433143999999999973e+00 -2.503330000000000277e-01 -1.136371000000000020e+00 -4.134999999999999787e-02 1.978731999999999935e+00 -4.027430000000000176e-01 5.232809999999999961e-01 -3.277370000000000005e-01 2.279154000000000124e+00 6.889199999999999768e-01 -2.027780000000000138e-01 3.317438999999999805e+00 3.530564000000000036e+00 3.651190000000000269e-01 -8.085909999999999487e-01 -9.508609999999999562e-01 -2.145475999999999939e+00 1.082576999999999900e+00 -1.079126000000000030e+00 7.395709999999999784e-01 2.083919999999999939e-01 -8.383300000000000474e-02 -1.169327000000000005e+00 1.164741999999999944e+00 1.163100000000000023e+00 7.129189999999999694e-01 -7.737239999999999673e-01 3.433559999999999945e-01 4.433909999999999796e-01 7.908889999999999532e-01 1.205632999999999955e+00 4.649799999999999767e-02 2.767958000000000141e+00 -4.286299999999999832e-02 -5.331470000000000375e-01 1.811662000000000106e+00 7.328700000000000214e-01 3.087650000000000117e-01 2.885309999999999819e-01 2.121750000000000025e-01 -1.871294000000000013e+00 -7.590500000000000025e-02 3.992595000000000116e+00 1.354099999999999922e-02 -2.747879000000000183e+00 7.779190000000000271e-01 -4.322943999999999676e+00 2.695443000000000033e+00 1.853763999999999967e+00 9.615899999999999448e-02 -6.260229999999999961e-01 1.070113000000000092e+00 3.214009999999999923e-01 -3.085470000000000157e-01 1.596370000000000011e-01 9.195290000000000408e-01 4.586400000000000199e-02 8.248159999999999936e-01 3.841100000000000070e-02 -4.844539999999999957e-01 -3.750789999999999957e-01 -1.853160000000000085e-01 -7.712780000000000191e-01 -3.428629999999999733e-01 5.967759999999999732e-01 -5.874470000000000525e-01 2.373820000000000097e-01 -1.458059999999999912e-01 3.252689999999999748e-01 8.939350000000000351e-01 2.019269999999999954e-01 -8.635990000000000055e-01 -3.421739999999999782e-01 -6.507840000000000291e-01 -5.546759999999999469e-01 2.299569999999999947e-01 -2.260999999999999954e-01 1.022467000000000015e+00 -5.541479999999999739e-01 -7.235139999999999905e-01 1.153362999999999916e+00 1.402180000000000093e-01 -1.088621000000000061e+00 3.865410000000000235e-01 1.458949999999999969e-01 2.150103999999999793e+00 1.270739999999999925e-01 9.852809999999999624e-01 2.833169999999999855e-01 -1.551909999999999956e-01 6.462069999999999759e-01 -4.772715999999999958e+00 3.353308000000000177e+00 -3.674680000000000168e-01 8.699400000000000466e-01 1.238510000000000028e-01 9.817890000000000228e-01 6.265760000000000218e-01 -9.952050000000000063e-01 3.887129999999999752e-01 6.745839999999999614e-01 4.160269999999999802e-01 -7.539219999999999811e-01 9.450260000000000327e-01 -6.274960000000000537e-01 -8.396339999999999915e-01 -2.938950000000000173e-01 6.745409999999999462e-01 -1.018292999999999893e+00 2.358850000000000113e-01 6.903099999999999514e-02 -8.606859999999999511e-01 -1.782399999999999957e-02 -7.435110000000000330e-01 -8.454009999999999581e-01 7.583389999999999853e-01 4.635580000000000256e-01 -1.111720000000000069e-01 2.539580000000000171e-01 1.100208000000000075e+00 -8.659799999999999442e-02 -5.648210000000000175e-01 -3.615920000000000245e-01 -1.034702999999999928e+00 6.863899999999999446e-01 9.156429999999999847e-01 -4.974709999999999965e-01 -1.098830999999999891e+00 1.704787000000000052e+00 5.830859999999999932e-01 -4.129700000000000037e-01 3.123239999999999905e-01 1.866299999999999903e-02 9.385189999999999921e-01 6.856109999999999705e-01 -4.458900000000000086e-01 1.650884999999999936e+00 1.646528999999999909e+00 1.183162999999999965e+00 8.563910000000000133e-01 1.112548000000000092e+00 1.338254000000000055e+00 -1.237716000000000038e+00 -2.425879999999999981e-01 -1.233111999999999986e+00 2.339499999999999913e-01 -5.954070000000000196e-01 1.288269000000000108e+00 5.033200000000000174e-02 6.320320000000000382e-01 1.861029999999999907e-01 1.483298000000000005e+00 3.045809999999999906e-01 1.829560000000000075e-01 -1.317059999999999897e-01 2.936210000000000209e-01 -8.296080000000000121e-01 3.174190000000000067e-01 3.700470000000000148e-01 -1.221433999999999909e+00 7.052619999999999445e-01 4.439270000000000160e-01 -4.089340000000000197e-01 -4.589639999999999831e-01 -1.657690000000000108e+00 -7.258050000000000335e-01 3.187849999999999850e-01 -1.668385000000000007e+00 -1.041740000000000110e+00 1.533336999999999950e+00 9.289500000000000535e-02 -4.451590000000000269e-01 8.729540000000000077e-01 1.253112000000000004e+00 -7.781529999999999836e-01 -2.801100000000000118e-02 -5.620420000000000416e-01 -4.590699999999999781e-01 -5.648299999999999849e-02 -4.075590000000000046e-01 9.074330000000000451e-01 8.020040000000000502e-01 -8.219400000000000039e-01 3.179969999999999741e-01 -1.712982000000000005e+00 1.444860000000000033e-01 3.796430000000000082e-01 -7.023999999999999862e-03 5.863730000000000331e-01 -9.910010000000000208e-01 -6.699770000000000447e-01 1.095922999999999981e+00 -1.470960000000000045e+00 -5.185070000000000512e-01 -9.858460000000000001e-01 -1.800518999999999981e+00 -4.334799999999999764e-01 -2.904599999999999890e-02 -2.779420000000000224e-01 -4.738040000000000029e-01 5.269829999999999792e-01 -1.819850000000000079e-01 1.033184000000000102e+00 8.001509999999999456e-01 -9.325339999999999741e-01 -5.595090000000000341e-01 1.803869999999999918e-01 -1.389723999999999959e+00 2.552449999999999997e-01 1.116195999999999966e+00 -6.317030000000000145e-01 1.630830000000000057e-01 -6.522719999999999629e-01 -5.903629999999999711e-01 1.773033000000000081e+00 3.456449999999999800e-01 1.362720000000000042e-01 -9.096619999999999706e-01 1.972550000000000137e-01 -1.666880000000000028e-01 -3.008629999999999916e-01 -1.222319999999999934e-01 1.597428999999999988e+00 2.423000000000000154e-02 -1.193327000000000027e+00 1.519317000000000029e+00 6.441470000000000251e-01 4.113200000000000189e-02 -3.442749999999999977e-01 -1.112951000000000024e+00 -4.033599999999999686e-02 -3.656460000000000266e-01 5.551460000000000283e-01 2.792760000000000242e-01 1.094106999999999941e+00 9.425839999999999774e-01 1.557799999999999983e-02 -3.847700000000000009e-01 1.713659999999999906e-01 2.046870000000000078e-01 -7.431259999999999533e-01 6.236099999999999977e-02 4.399819999999999842e-01 5.272999999999999909e-01 4.865280000000000160e-01 1.011547999999999892e+00 -3.712489999999999957e-01 -9.062810000000000032e-01 -6.141469999999999985e-01 6.923000000000000334e-03 3.447540000000000049e-01 -7.257409999999999695e-01 7.522879999999999567e-01 -1.162398999999999960e+00 1.179424999999999946e+00 -2.493517999999999901e+00 -2.531169999999999809e-01 -7.607949999999999990e-01 -2.029373000000000093e+00 -7.109140000000000459e-01 3.686699999999999700e-02 5.929170000000000273e-01 2.725230000000000152e-01 -5.315109999999999557e-01 9.331300000000000150e-01 1.711297000000000068e+00 8.375240000000000462e-01 -1.653307000000000082e+00 -3.499789999999999845e-01 -1.294662999999999897e+00 6.267749999999999710e-01 2.142131000000000007e+00 1.557890999999999915e+00 -1.994914999999999994e+00 7.281699999999999839e-01 -1.475354999999999972e+00 -2.992522999999999822e+00 6.402280000000000193e-01 -1.377942000000000000e+00 1.697054999999999980e+00 -6.064329999999999998e-01 3.200279999999999792e-01 3.638370000000000215e-01 1.060103999999999935e+00 1.477516000000000052e+00 1.705100000000000018e-02 -9.151399999999999813e-02 3.375130000000000075e-01 -4.038660000000000028e-01 1.920058000000000042e+00 -1.811159999999999992e-01 -6.303330000000000322e-01 1.266619999999999968e-01 -9.246220000000000550e-01 -5.358150000000000412e-01 1.557199999999999973e-01 5.102000000000000285e-02 -7.406169999999999698e-01 -7.742689999999999850e-01 7.657270000000000465e-01 5.389490000000000114e-01 1.111094000000000026e+00 -8.016499999999999737e-01 1.232887000000000066e+00 2.059819000000000067e+00 -1.212899999999999916e-02 -5.794010000000000549e-01 1.607119999999999937e-01 -1.851299999999999890e-01 -4.895399999999999752e-02 -5.430589999999999584e-01 1.831919999999999937e-01 8.282509999999999595e-01 7.929890000000000549e-01 -1.103539999999999965e+00 -5.631999999999999854e-03 8.557949999999999724e-01 1.016143000000000018e+00 -1.284712000000000076e+00 4.173080000000000123e-01 1.313060000000000060e-01 -4.581020000000000092e-01 -8.601170000000000204e-01 3.625050000000000217e-01 -5.454780000000000184e-01 1.088683999999999985e+00 -1.999070000000000014e-01 -1.083134999999999959e+00 -1.668949999999999878e-01 2.748650000000000260e-01 6.335499999999999465e-02 1.313647000000000009e+00 -1.223551000000000055e+00 -1.966799999999999937e-01 -1.007538000000000045e+00 1.891542999999999974e+00 -9.590410000000000323e-01 1.633158000000000110e+00 -7.104390000000000427e-01 -1.209000000000000005e-03 3.126019999999999910e-01 -1.737243000000000093e+00 -1.117199999999999999e-01 -7.135650000000000048e-01 8.426059999999999661e-01 5.968489999999999629e-01 6.686300000000000576e-02 -2.599199999999999844e-01 -2.161750000000000060e-01 1.132940000000000058e-01 -6.772829999999999684e-01 2.954060000000000019e-01 -1.456109000000000098e+00 -9.527740000000000098e-01 9.169359999999999733e-01 -3.034047000000000160e+00 -2.535991000000000106e+00 -1.067499999999999977e-01 6.535649999999999515e-01 -4.387100000000000027e-02 -1.088238999999999956e+00 1.525633000000000017e+00 4.077399999999999913e-01 -1.813800000000000134e-01 2.155248999999999970e+00 9.524499999999999633e-02 3.322720000000000118e-01 1.510394000000000014e+00 1.337671000000000054e+00 1.374340000000000006e-01 4.090150000000000174e-01 -4.089380000000000237e-01 -2.853600000000000025e-01 -2.104850000000000054e-01 4.872429999999999817e-01 -8.650689999999999769e-01 -1.650722000000000023e+00 -7.765900000000000025e-01 -2.495890000000000053e-01 4.337770000000000237e-01 1.589230000000000087e-01 2.622189999999999799e-01 -2.433680000000000010e-01 -1.244664999999999910e+00 2.061699999999999991e-02 -4.865399999999999725e-01 -1.219147999999999898e+00 -5.107120000000000548e-01 -4.391669999999999741e-01 -7.913900000000000101e-02 4.023309999999999942e-01 -1.118476999999999943e+00 -6.403269999999999795e-01 -1.913160000000000138e-01 -1.353971999999999953e+00 -4.972750000000000226e-01 -3.547800000000000259e-02 -2.136181999999999803e+00 4.057600000000000096e-02 5.298929999999999474e-01 -2.526109999999999745e-01 -2.384560000000000013e-01 4.184109999999999774e-01 -1.014601000000000086e+00 5.777799999999999603e-01 -1.712519999999999876e-01 2.855329999999999813e-01 3.856629999999999781e-01 -1.601032000000000011e+00 -1.626359000000000110e+00 -7.648900000000000143e-02 -1.976130000000000109e-01 -6.818100000000000271e-01 -3.210669999999999913e-01 -8.977140000000000120e-01 1.117410999999999932e+00 -2.468640000000000001e-01 -1.085803000000000074e+00 -6.952279999999999571e-01 3.420429999999999859e-01 4.436849999999999961e-01 -6.518770000000000397e-01 -1.037560000000000010e-01 6.749439999999999884e-01 6.752899999999999459e-01 8.143499999999999350e-02 1.961125000000000007e+00 -3.825599999999999834e-02 2.761839999999999851e-01 -2.210499999999999965e-01 2.516157999999999895e+00 -2.519680000000000253e-01 8.099319999999999853e-01 -6.521059999999999635e-01 -3.460710000000000175e-01 7.343899999999999872e-01 -4.737500000000000044e-02 3.798599999999999893e-02 7.137719999999999620e-01 1.469370999999999983e+00 7.709859999999999491e-01 2.688660000000000050e+00 -8.444369999999999932e-01 -1.737551999999999985e+00 3.047440000000000149e-01 -7.390849999999999920e-01 1.481751999999999958e+00 -3.199549999999999894e-01 8.638109999999999955e-01 -5.054899999999999671e-02 2.097694999999999865e+00 9.739470000000000072e-01 -1.657154000000000016e+00 -8.702809999999999713e-01 6.069999999999999840e-01 -1.509189999999999976e-01 -7.607120000000000548e-01 -1.181389999999999940e-01 2.874709999999999765e-01 3.901629999999999820e-01 1.820390000000000064e-01 -6.049200000000000133e-01 2.105370000000000019e-01 2.690429999999999766e-01 -1.680436999999999959e+00 -1.911270999999999942e+00 -6.152809999999999668e-01 1.534518999999999966e+00 -6.191339999999999621e-01 -1.808589999999999920e+00 4.591509999999999758e-01 -8.335989999999999789e-01 3.119759999999999756e-01 6.254399999999999959e-01 -2.804289999999999838e-01 7.949559999999999960e-01 -1.873900000000000010e-01 1.379900000000000015e-01 4.592479999999999896e-01 -8.666869999999999852e-01 -5.962709999999999955e-01 -1.968560000000000032e-01 -6.554969999999999963e-01 8.555230000000000334e-01 -3.858860000000000068e-01 -8.769209999999999505e-01 -7.691569999999999796e-01 2.915989999999999971e-01 -6.299120000000000275e-01 -2.399010000000000031e-01 -3.816749999999999865e-01 -7.776199999999999779e-01 -1.678399999999999892e-01 -4.544499999999999929e-02 -4.576189999999999980e-01 4.525900000000000062e-02 5.977799999999999780e-01 2.636979999999999880e-01 9.127729999999999455e-01 -7.764459999999999695e-01 9.867390000000000327e-01 1.453689000000000009e+00 -3.784779999999999811e-01 -8.108300000000000229e-02 -1.555759999999999921e-01 4.154760000000000120e-01 -2.712919999999999776e-01 -4.619429999999999925e-01 -4.310610000000000275e-01 3.279100000000000070e-02 2.544770000000000088e-01 -4.645340000000000025e-01 -1.323155999999999999e+00 -3.239759999999999862e-01 -1.445416000000000034e+00 -7.685969999999999747e-01 7.947999999999999510e-01 -1.230720999999999954e+00 -1.900630000000000097e-01 -6.459920000000000107e-01 1.254290000000000127e-01 -9.345470000000000166e-01 -1.108095999999999970e+00 1.085699999999999998e-01 9.765970000000000484e-01 -1.131396000000000068e+00 -2.497600000000000167e-02 1.095377999999999963e+00 1.091840000000000033e-01 9.067039999999999544e-01 -5.688790000000000235e-01 6.951129999999999809e-01 -6.165890000000000537e-01 -1.719509999999999927e-01 1.295770000000000088e+00 -8.961479999999999446e-01 -7.691519999999999468e-01 -1.235891999999999991e+00 -1.948300000000000032e-02 6.830859999999999710e-01 -1.762393000000000098e+00 -4.643789999999999862e-01 1.240625000000000089e+00 5.094819999999999904e-01 1.697659999999999947e+00 -2.955949999999999966e-01 -3.016274999999999817e+00 3.432859999999999800e-01 1.306203999999999921e+00 2.529800000000000104e-02 -1.260231000000000101e+00 8.204690000000000039e-01 -5.396929999999999783e-01 1.163440000000000030e-01 6.467509999999999648e-01 1.013811000000000018e+00 8.070730000000000404e-01 4.224859999999999727e-01 2.470169999999999866e-01 -2.956999999999999993e-03 -1.070408000000000026e+00 -6.570019999999999749e-01 3.410139999999999838e-01 -3.330980000000000052e-01 -1.426954999999999973e+00 2.689909999999999801e-01 -8.017879999999999452e-01 6.809530000000000305e-01 6.645640000000000436e-01 5.558349999999999680e-01 -3.482939999999999925e-01 -4.003809999999999869e-01 1.877050000000000107e-01 -8.063500000000000112e-01 -4.615070000000000006e-01 -3.455400000000000138e-01 -1.272718000000000016e+00 1.058834000000000053e+00 -1.419477000000000100e+00 5.009310000000000151e-01 2.719360000000000110e-01 8.392079999999999540e-01 4.901940000000000186e-01 -5.331160000000000343e-01 -1.129733000000000098e+00 -1.437796999999999992e+00 -5.993359999999999799e-01 -4.586839999999999806e-01 -5.094589999999999952e-01 3.405290000000000261e-01 1.407953999999999928e+00 1.505738999999999939e+00 1.093309000000000086e+00 1.890070000000000083e-01 1.003994000000000053e+00 1.082699000000000078e+00 -9.359009999999999829e-01 8.220070000000000432e-01 -9.926549999999999541e-01 -3.581860000000000044e-01 8.526479999999999615e-01 -2.567581999999999809e+00 -5.796099999999999863e-02 2.512349999999999861e-01 3.275536999999999921e+00 -2.398642000000000163e+00 -1.064103999999999939e+00 -4.091190000000000104e-01 5.305720000000000436e-01 -1.0212