-1.662393586619999951e+03
-1.664483066089999966e+03
-1.656765870709999945e+03
-1.664315105919999951e+03
-1.659262309330000107e+03
-1.660600270970000111e+03
-1.663407924650000041e+03
-1.661341180540000096e+03
-1.667060061189999942e+03
-1.659754543259999991e+03
-1.662002295020000020e+03
-1.664256700039999942e+03
-1.663311761740000065e+03
-1.666599285830000099e+03
-1.664368106359999956e+03
-1.659001686529999915e+03
-1.656597181930000033e+03
-1.668809364579999965e+03
-1.656329133899999988e+03
-1.665016431459999922e+03
-1.660699819220000109e+03
-1.669260648700000047e+03
-1.666071321330000046e+03
-1.664390794050000068e+03
-1.660785638410000047e+03
-1.678568203029999950e+03
-1.662504552690000082e+03
-1.659929581749999898e+03
-1.662702786119999928e+03
-1.660376541780000025e+03
-1.658188988209999934e+03
-1.664190091789999997e+03
-1.667159575240000095e+03
-1.658472755479999933e+03
-1.656688093510000044e+03
-1.679356947940000055e+03
-1.664007886650000046e+03
-1.662646635529999912e+03
-1.662060285750000048e+03
-1.660726327489999903e+03
-1.661581240949999938e+03
-1.659287647899999911e+03
-1.654897085970000035e+03
-1.663571775440000010e+03
-1.665434146800000008e+03
-1.663382427530000086e+03
-1.664082317990000092e+03
-1.659563039780000054e+03
-1.659280382059999965e+03
-1.661749678989999893e+03
-1.658423715390000098e+03
-1.659321733179999910e+03
-1.662167615780000006e+03
-1.662631875730000047e+03
-1.660947804220000080e+03
-1.663269093310000017e+03
-1.655685860759999969e+03
-1.663242281130000038e+03
-1.660163466740000104e+03
-1.659884942509999973e+03
-1.666449125260000073e+03
-1.656711207979999926e+03
-1.662753699310000002e+03
-1.663478090139999949e+03
-1.661486548690000063e+03
-1.658588866459999963e+03
-1.664606408330000022e+03
-1.663556748989999960e+03
-1.683111610310000060e+03
-1.659783074460000080e+03
-1.665637482639999917e+03
-1.662806864700000006e+03
-1.661062906659999953e+03
-1.658664571230000092e+03
-1.664899527269999908e+03
-1.664232170049999922e+03
-1.661221856290000005e+03
-1.665158124260000022e+03
-1.663872158440000021e+03
-1.657349533190000102e+03
-1.681943450290000101e+03
-1.665401453480000100e+03
-1.661326794880000080e+03
-1.661262518360000058e+03
-1.663156047940000008e+03
-1.662499802510000109e+03
-1.664156224560000055e+03
-1.664040441529999953e+03
-1.661876412600000094e+03
-1.661228398479999896e+03
-1.658067888779999976e+03
-1.663705022520000057e+03
-1.660140699490000088e+03
-1.659456045870000025e+03
-1.662876631039999893e+03
-1.663892385729999887e+03
-1.658990974690000030e+03
-1.659608453459999964e+03
-1.662482766200000015e+03
-1.659755296009999938e+03
-1.664353705349999927e+03
-1.655108755049999900e+03
-1.661855555639999920e+03
-1.664047554089999949e+03
-1.664262576829999944e+03
-1.663515361479999910e+03
-1.662925994360000004e+03
-1.664282861390000107e+03
-1.664412854059999972e+03
-1.659188917360000005e+03
-1.662592313390000072e+03
-1.663546685519999983e+03
-1.660946536220000098e+03
-1.655867641130000038e+03
-1.661521234520000007e+03
-1.660784617430000026e+03
-1.662418230080000058e+03
-1.660432318420000001e+03
-1.664451329819999955e+03
-1.665041821280000022e+03
-1.663828783129999920e+03
-1.660297026369999912e+03
-1.661518912009999895e+03
-1.655773908760000040e+03
-1.662166629199999988e+03
-1.665085997090000092e+03
-1.668413731919999918e+03
-1.663222728449999977e+03
-1.656959543660000008e+03
