8.985409602646663529e+01 -5.478263548443994324e+00 6.453384274265570930e+00 -5.478263548443994324e+00 6.905793921398260693e+01 -1.881239922367698369e+01 6.453384274265570930e+00 -1.881239922367698369e+01 8.929499253429864325e+01
7.614696600276727168e+01 6.213969436290278203e+00 -5.058026482759645504e+00 6.213969436290278203e+00 7.579720498237833226e+01 -2.668679980834818277e+00 -5.058026482759645504e+00 -2.668679980834818277e+00 6.788613551247428290e+01
7.905617640935564339e+01 1.188212542611864819e+01 -9.999061760252596187e+00 1.188212542611864819e+01 1.081335838188562235e+02 3.980271681339258905e+00 -9.999061760252596187e+00 3.980271681339258905e+00 9.218203669677137668e+01
1.232238486723172315e+02 8.039992614016348016e-01 -2.157333346339125768e+01 8.039992614016348016e-01 8.181104767201421168e+01 3.864784094382375912e+00 -2.157333346339125768e+01 3.864784094382375912e+00 1.010442175033564496e+02
1.115203628021675968e+02 -1.412047954744843992e+01 5.589046265205658059e+00 -1.412047954744843992e+01 9.121676224568825830e+01 5.853586080099752564e+00 5.589046265205658059e+00 5.853586080099752564e+00 8.284878682486701962e+01
1.080445793156786323e+02 1.235935447612652993e+01 -1.362937840593712302e+01 1.235935447612652993e+01 9.682569507563658817e+01 -1.555866620887579721e+01 -1.362937840593712302e+01 -1.555866620887579721e+01 7.127849243467687756e+01
1.013610929361953055e+02 2.279533861492074820e+00 -1.577877652790575702e+01 2.279533861492074820e+00 9.244148361093868971e+01 -2.687174486045511301e+01 -1.577877652790575702e+01 -2.687174486045511301e+01 1.059257385980707085e+02
7.337749509135858261e+01 -3.367086433834464820e+00 5.928427468875254291e+00 -3.367086433834464820e+00 8.899703358987355273e+01 -6.880605889518081497e+00 5.928427468875254291e+00 -6.880605889518081497e+00 7.879333422803712494e+01
7.426986830632402814e+01 -9.751207258215774942e+00 2.821098373633352097e+01 -9.751207258215774942e+00 6.845503677556428102e+01 8.331064016506166681e+00 2.821098373633352097e+01 8.331064016506166681e+00 6.165048487023283741e+01
7.361763748658054851e+01 8.152424460537160300e+00 -1.795548229853324074e+01 8.152424460537160300e+00 6.118174398810292303e+01 -8.232649772938120947e+00 -1.795548229853324074e+01 -8.232649772938120947e+00 7.986973092259704288e+01
1.179358655957891813e+02 2.414277463577846117e+00 2.519375533052089722e+01 2.414277463577846117e+00 9.677200135083134569e+01 -3.687696660539629523e+00 2.519375533052089722e+01 -3.687696660539629523e+00 1.030443693821220847e+02
7.402443899510949166e+01 6.726800287569203896e+00 -1.070716897654135380e+01 6.726800287569203896e+00 8.554312532460153307e+01 1.332957631648710617e+01 -1.070716897654135380e+01 1.332957631648710617e+01 5.167717863651283494e+01
8.159811591781819118e+01 1.807140641983813367e+01 -2.330739340513654767e+01 1.807140641983813367e+01 5.962574155652929875e+01 -7.830553134604411269e+00 -2.330739340513654767e+01 -7.830553134604411269e+00 7.721366193403807188e+01
1.238267511107355716e+02 2.469135279977776154e+00 8.874355264512905350e+00 2.469135279977776154e+00 7.541223019124990401e+01 2.764717537397030824e-03 8.874355264512905350e+00 2.764717537397030824e-03 9.096240823224772498e+01
6.740294049304360158e+01 -1.010072575952249352e+01 5.993083056197188618e+00 -1.010072575952249352e+01 5.599139909407979587e+01 1.489227227473022097e+01 5.993083056197188618e+00 1.489227227473022097e+01 6.435447562944003153e+01
1.063108103968320250e+02 5.385184724684960678e+00 -1.914057604574765703e+00 5.385184724684960678e+00 8.704412442832590102e+01 7.830019592623510327e+00 -1.914057604574765703e+00 7.830019592623510327e+00 7.488965007286542175e+01
9.015205497089172582e+01 8.605062075607146088e-01 -4.137375542806434048e-01 8.605062075607146088e-01 8.831924125886327204e+01 9.540700694842035867e-01 -4.137375542806434048e-01 9.540700694842035867e-01 8.218195635637343344e+01
9.244623698495036024e+01 1.680361366558403446e+01 2.384171144710085599e+01 1.680361366558403446e+01 8.284000763409036949e+01 9.656139777982473138e-01 2.384171144710085599e+01 9.656139777982473138e-01 7.269121459247033101e+01
8.946669604451592761e+01 -1.110688892786922954e+00 -1.906229088600451860e+01 -1.110688892786922954e+00 9.643203810136439813e+01 9.919855027996993257e+00 -1.906229088600451860e+01 9.919855027996993257e+00 8.385645361152357680e+01
8.300545415198618571e+01 -2.373243234864900408e+00 -1.664068934614339312e+01 -2.373243234864900408e+00 9.496542820349993974e+01 -2.255374110520540398e+01 -1.664068934614339312e+01 -2.255374110520540398e+01 6.863401585824840367e+01
6.999857372631139185e+01 -8.532354854755247686e+00 1.013244725547789038e+01 -8.532354854755247686e+00 7.740040162735348872e+01 -9.693972754810010750e-01 1.013244725547789038e+01 -9.693972754810010750e-01 8.939854818240991108e+01
1.154531007433902090e+02 4.128159817681777422e-01 4.810802530336616201e+00 4.128159817681777422e-01 1.173000290660042992e+02 2.613191614821095499e+01 4.810802530336616201e+00 2.613191614821095499e+01 1.036347578358974602e+02
8.608006257265391525e+01 5.915913484232300235e+00 -5.102747001522453196e+00 5.915913484232300235e+00 1.145831362916225942e+02 1.627133278391043802e+01 -5.102747001522453196e+00 1.627133278391043802e+01 9.134641294704724146e+01
7.811238914895788810e+01 -4.885886438194345871e+00 1.898497580259029149e+01 -4.885886438194345871e+00 6.268046341245435116e+01 -7.798880142465460352e+00 1.898497580259029149e+01 -7.798880142465460352e+00 7.841083313154743450e+01
8.505735960289923980e+01 -5.212802161037433102e+00 -3.102983153288379814e+00 -5.212802161037433102e+00 6.226837498793285164e+01 -1.568855942931701275e+00 -3.102983153288379814e+00 -1.568855942931701275e+00 9.585595827344047848e+01
9.116287450561722494e+01 8.608796869473453128e+00 -8.565773984286238762e-02 8.608796869473453128e+00 8.359516355233132856e+01 -3.599856248956716520e+00 -8.565773984286238762e-02 -3.599856248956716520e+00 6.357477678007762023e+01
7.826731033868502152e+01 2.856632269561370840e+00 -2.025907405298231367e+01 2.856632269561370840e+00 9.298836414136241046e+01 5.110847138868862771e+00 -2.025907405298231367e+01 5.110847138868862771e+00 7.621181560535499955e+01
7.495745840825631490e+01 -8.741600318901401323e+00 2.278127250815153548e+00 -8.741600318901401323e+00 3.840381824328613902e+01 3.043129443794556632e-01 2.278127250815153548e+00 3.043129443794556632e-01 9.181146753912727831e+01
6.387739209088148584e+01 1.383988496931086232e+01 -2.643855727577979664e+01 1.383988496931086232e+01 7.421966685630286520e+01 4.292151221084222534e+00 -2.643855727577979664e+01 4.292151221084222534e+00 5.030558771506523641e+01
9.943195064470596378e+01 1.194328873865650209e+01 -1.089182300574960749e+01 1.194328873865650209e+01 9.430179898689176810e+01 -2.062634495110810562e+01 -1.089182300574960749e+01 -2.062634495110810562e+01 1.068806817362509349e+02
7.876277682367643251e+01 7.086359078880154705e+00 -1.385657028216813691e+00 7.086359078880154705e+00 7.892376099045925741e+01 1.242143936117684966e+01 -1.385657028216813691e+00 1.242143936117684966e+01 8.993325425490579050e+01
9.092530281266685677e+01 -4.074272077610758380e+00 8.763136013403231672e+00 -4.074272077610758380e+00 1.064020945793825632e+02 -1.688257787875740945e+01 8.763136013403231672e+00 -1.688257787875740945e+01 6.915048449576075029e+01
7.185442675115149314e+01 1.263441961918931433e+01 -9.542155809335401528e+00 1.263441961918931433e+01 8.636376139504399418e+01 -2.827675491143370579e+00 -9.542155809335401528e+00 -2.827675491143370579e+00 8.019863530191440759e+01
1.143356213163009016e+02 -2.744345934489894834e+00 3.942632719777502626e+00 -2.744345934489894834e+00 6.813835535799120180e+01 -1.341809578150025750e+01 3.942632719777502626e+00 -1.341809578150025750e+01 9.154886787689100913e+01
5.935766096303468231e+01 -1.893579293271449160e+01 -9.990767607640403725e+00 -1.893579293271449160e+01 1.061273204592184385e+02 7.954092355091258781e+00 -9.990767607640403725e+00 7.954092355091258781e+00 7.497011790434861211e+01
7.596716235520358396e+01 8.605547113771599976e-01 -3.095756084637991012e+00 8.605547113771599976e-01 7.009674545079721497e+01 2.948207475010591772e+00 -3.095756084637991012e+00 2.948207475010591772e+00 5.882038418826719095e+01
7.397758430842307575e+01 -1.494130963315668303e+01 3.169394578765643544e+01 -1.494130963315668303e+01 7.239723296099377592e+01 5.422193136632924571e+00 3.169394578765643544e+01 5.422193136632924571e+00 7.142128767029262804e+01
5.526442389319370818e+01 -9.173672315798468091e+00 2.860173048161896769e+00 -9.173672315798468091e+00 1.064914871130917220e+02 7.520128709352815299e+00 2.860173048161896769e+00 7.520128709352815299e+00 7.541242420651568068e+01
6.081229041823708314e+01 1.176571626664929937e+01 -3.952576002148843193e-01 1.176571626664929937e+01 9.386861140221645883e+01 -1.039912123829559043e+01 -3.952576002148843193e-01 -1.039912123829559043e+01 7.510651063619351930e+01
9.169913270023937457e+01 -1.909449742012437223e+00 1.548998480478888240e+01 -1.909449742012437223e+00 7.489736217968025755e+01 -9.415560848412484196e-01 1.548998480478888240e+01 -9.415560848412484196e-01 9.053518661699520464e+01
5.440692492225262100e+01 2.047515855524729389e+01 1.323281120267820965e+00 2.047515855524729389e+01 8.636104518132304975e+01 7.038437308231939582e+00 1.323281120267820965e+00 7.038437308231939582e+00 6.674212449778926270e+01
1.032415858997897544e+02 -4.922797842509419652e+00 8.152521468170051966e-01 -4.922797842509419652e+00 1.010233123584684165e+02 1.514963352479037262e+01 8.152521468170051966e-01 1.514963352479037262e+01 9.760830415398574189e+01
1.032655467851138411e+02 5.682464615679810649e+00 -2.569877706735208633e+01 5.682464615679810649e+00 7.251058638002704981e+01 -5.874394217354898196e+00 -2.569877706735208633e+01 -5.874394217354898196e+00 8.597020142840470669e+01
7.433704609210113290e+01 -1.303132634916334531e+01 -7.097369445213297823e+00 -1.303132634916334531e+01 8.010812718042699032e+01 2.305386395657559595e-01 -7.097369445213297823e+00 2.305386395657559595e-01 8.283025836698480759e+01
7.030249864015928551e+01 1.993749374994823853e+01 5.716223271925921168e+00 1.993749374994823853e+01 6.431101620990480683e+01 -2.406575057526290706e+01 5.716223271925921168e+00 -2.406575057526290706e+01 6.485484099989244555e+01
9.721755740870028717e+01 -2.574146042582418303e+00 -2.149010091437067782e+00 -2.574146042582418303e+00 9.926451547033589407e+01 2.426078442119051104e+01 -2.149010091437067782e+00 2.426078442119051104e+01 7.691284126444270441e+01
1.169819895415707549e+02 -8.467505252167532248e+00 -1.003655521036501597e+01 -8.467505252167532248e+00 9.586774470083675226e+01 2.030471614425758631e+01 -1.003655521036501597e+01 2.030471614425758631e+01 1.083016980466565400e+02
8.982150146181520256e+01 -6.629307616513624879e+00 -1.095065813509807562e+01 -6.629307616513624879e+00 7.748518629850033790e+01 1.379885074059791883e+01 -1.095065813509807562e+01 1.379885074059791883e+01 5.193061107744090066e+01
6.584242720654053471e+01 -1.918073720576458285e+01 -6.424330488214679669e+00 -1.918073720576458285e+01 9.794875244161714534e+01 -9.429141917017242136e+00 -6.424330488214679669e+00 -9.429141917017242136e+00 6.713447186901741759e+01
1.182124343571617828e+02 8.068027819921884003e+00 9.145928132791606657e+00 8.068027819921884003e+00 1.047021813244149371e+02 8.556024717180681805e+00 9.145928132791606657e+00 8.556024717180681805e+00 9.374230746419220850e+01
1.012820317153890528e+02 -1.209854945509874291e+01 -1.174820638891245039e+01 -1.209854945509874291e+01 6.123762038464821700e+01 6.825020515871467630e+00 -1.174820638891245039e+01 6.825020515871467630e+00 6.103133365330523930e+01
1.046228775845264494e+02 1.599951739654950877e+01 -1.561871393363540417e+00 1.599951739654950877e+01 4.733652359898304951e+01 4.959515231558708770e+00 -1.561871393363540417e+00 4.959515231558708770e+00 1.037796387356203667e+02
1.233733374346024618e+02 4.879192911524858900e+00 7.414778420033054651e-01 4.879192911524858900e+00 9.778451851913246173e+01 -3.815552720690130517e+00 7.414778420033054651e-01 -3.815552720690130517e+00 1.134263687732123884e+02
5.620258471088376240e+01 -1.509647334196603552e+01 9.700278250947933500e-01 -1.509647334196603552e+01 6.469075258885710866e+01 -1.789975141343728993e+01 9.700278250947933500e-01 -1.789975141343728993e+01 5.628009380956377328e+01
6.128985899496008471e+01 1.087751437989816772e+01 4.958011613248896055e+00 1.087751437989816772e+01 1.043611994948026478e+02 -1.234431829302840633e+01 4.958011613248896055e+00 -1.234431829302840633e+01 5.856054924356831748e+01
7.055175975287302492e+01 -6.660980608652575796e+00 1.287878184644205248e+01 -6.660980608652575796e+00 8.578918518542987215e+01 -7.410558588002291280e+00 1.287878184644205248e+01 -7.410558588002291280e+00 5.958975172472668902e+01
9.015195796325882327e+01 1.191923084569950220e+01 6.279740611390459470e+00 1.191923084569950220e+01 8.755564567656080044e+01 1.388179226671983013e+00 6.279740611390459470e+00 1.388179226671983013e+00 9.872481350474613748e+01
7.412304725394331228e+01 -1.134863194903391026e+01 -1.953491207345007474e+00 -1.134863194903391026e+01 8.465657256760954397e+01 1.790615391720810301e+00 -1.953491207345007474e+00 1.790615391720810301e+00 7.310068381090376022e+01
8.980932700388738965e+01 6.066129803764205519e+00 -2.467001112054171497e+00 6.066129803764205519e+00 1.000947067926181262e+02 5.496112952895960468e+00 -2.467001112054171497e+00 5.496112952895960468e+00 6.906589383987967778e+01
7.868046584716830694e+01 1.170600806860481136e+01 -1.888835620023073369e+00 1.170600806860481136e+01 7.198727870439589083e+01 2.967560497772371075e+00 -1.888835620023073369e+00 2.967560497772371075e+00 8.714709803063982463e+01
8.021745478269528462e+01 -7.294052420900051459e+00 1.962842743155711744e+01 -7.294052420900051459e+00 8.210342867754805241e+01 -3.528992173129750665e+00 1.962842743155711744e+01 -3.528992173129750665e+00 7.994403876939163922e+01
1.271937890407535861e+02 -1.688393598561788522e+01 1.980119802573620857e+00 -1.688393598561788522e+01 7.950250852828769155e+01 -2.046603983775552749e+01 1.980119802573620857e+00 -2.046603983775552749e+01 1.121618742784766027e+02
6.454514413188753963e+01 -1.404743279988142390e+01 9.070213675320084601e-01 -1.404743279988142390e+01 1.148838599535850875e+02 2.672026744169562207e+00 9.070213675320084601e-01 2.672026744169562207e+00 7.526603968848297654e+01
1.023654129595171156e+02 1.123285333917835338e+01 -1.812529415990915282e+01 1.123285333917835338e+01 7.263902448597490036e+01 -8.662636105728028113e+00 -1.812529415990915282e+01 -8.662636105728028113e+00 6.996161381817988456e+01
5.988906877601225176e+01 1.736921666915573148e+00 -7.781273257095721263e+00 1.736921666915573148e+00 9.280317657017324962e+01 1.419265322631943427e+01 -7.781273257095721263e+00 1.419265322631943427e+01 5.832074637506145365e+01
1.199182165739192953e+02 1.553000045335646995e+01 1.623422736432958424e-01 1.553000045335646995e+01 9.207290310976887326e+01 9.168094376907227172e+00 1.623422736432958424e-01 9.168094376907227172e+00 1.024191551881388023e+02
9.513926588164083853e+01 2.603864330918613845e+01 -1.236818217071962245e+01 2.603864330918613845e+01 7.047478419617392831e+01 -5.998952017987101426e-01 -1.236818217071962245e+01 -5.998952017987101426e-01 8.142772201064494197e+01
1.037029542018199209e+02 -3.467586341509669268e+00 -1.452252768196570232e+00 -3.467586341509669268e+00 7.409443000224042919e+01 -1.346994636128056122e+01 -1.452252768196570232e+00 -1.346994636128056122e+01 8.701992102391956507e+01
6.200863705086687361e+01 -1.626255359313379145e+01 -8.662296579012908060e-01 -1.626255359313379145e+01 5.997254384411506578e+01 -2.378627158490357885e-01 -8.662296579012908060e-01 -2.378627158490357885e-01 6.430878503434830407e+01
9.015423764263177020e+01 -7.461342083820794446e-01 -2.323982758882787891e+01 -7.461342083820794446e-01 1.049995097192262534e+02 2.386979515682283548e+01 -2.323982758882787891e+01 2.386979515682283548e+01 7.953529710820488674e+01
9.484436267765183004e+01 2.046618534920486177e+00 2.635095938327911114e+01 2.046618534920486177e+00 5.549593260908837777e+01 1.232511078171596353e+01 2.635095938327911114e+01 1.232511078171596353e+01 9.081592670658213251e+01
1.212423707628831266e+02 -7.771523989990162917e+00 2.044411611272213136e+01 -7.771523989990162917e+00 1.121051248132352782e+02 -1.030526635347342612e+01 2.044411611272213136e+01 -1.030526635347342612e+01 9.308153997275432801e+01
7.470911886805504309e+01 1.561240843749748031e+00 1.529257427185544316e+01 1.561240843749748031e+00 1.020586263204989308e+02 -1.511039393728591307e+01 1.529257427185544316e+01 -1.511039393728591307e+01 7.962066382514909435e+01
7.863196203072276091e+01 -4.525066547655811178e+00 -5.653944371609819441e+00 -4.525066547655811178e+00 8.457595922467702110e+01 1.063043593892447447e+01 -5.653944371609819441e+00 1.063043593892447447e+01 9.108439533060831650e+01
8.365656938395140685e+01 2.085227572811153784e+00 -1.206527583701709005e+01 2.085227572811153784e+00 9.385958969235758786e+01 -8.086895804519206976e+00 -1.206527583701709005e+01 -8.086895804519206976e+00 8.412434018975240235e+01
7.651394587799440217e+01 1.228072978966827478e+01 3.267896129203290645e+00 1.228072978966827478e+01 6.297643370040516686e+01 -2.237524706068573366e+01 3.267896129203290645e+00 -2.237524706068573366e+01 5.308839717599646235e+01
8.408587666331108323e+01 5.829576690959199503e+00 7.052794437899826185e+00 5.829576690959199503e+00 6.893396345914776191e+01 -1.541921773659480621e+01 7.052794437899826185e+00 -1.541921773659480621e+01 6.535190811082657092e+01
8.024650856874617944e+01 -1.414080264653913011e+00 6.346045328471542568e+00 -1.414080264653913011e+00 1.047521402553538792e+02 4.965044666633503745e+00 6.346045328471542568e+00 4.965044666633503745e+00 7.830916913227754605e+01
9.407732332438170886e+01 1.066531018294883282e+01 -1.079641599880118896e+01 1.066531018294883282e+01 7.571887131881874211e+01 -2.297970162123032978e+01 -1.079641599880118896e+01 -2.297970162123032978e+01 6.518190223418487506e+01
9.375841073125215530e+01 8.395331573296536121e+00 4.299475297367502336e+00 8.395331573296536121e+00 9.174375621136928771e+01 8.675247098003872281e+00 4.299475297367502336e+00 8.675247098003872281e+00 8.395729304591388598e+01
5.837541017619560790e+01 6.519640487530208972e+00 1.145359420782210691e+01 6.519640487530208972e+00 7.852792134444702299e+01 -7.933963271266350148e+00 1.145359420782210691e+01 -7.933963271266350148e+00 5.343519946358222938e+01
1.307997567705824338e+02 -1.617742939527182955e+01 3.045360619351052289e+00 -1.617742939527182955e+01 9.150346830469797510e+01 7.983728186939496041e-01 3.045360619351052289e+00 7.983728186939496041e-01 8.907590079541402872e+01
8.310139470091550606e+01 5.653362325812473443e+00 -9.702121395972865159e+00 5.653362325812473443e+00 1.242503349397546657e+02 -6.208148978316810229e+00 -9.702121395972865159e+00 -6.208148978316810229e+00 9.239666608454299990e+01
6.850121240882045015e+01 -1.099372952410173454e+01 -7.385773137798609334e+00 -1.099372952410173454e+01 1.142134887064909634e+02 -1.481772190885339135e+01 -7.385773137798609334e+00 -1.481772190885339135e+01 7.592040467615005639e+01
1.054153814414304833e+02 -6.423845450050224670e+00 -1.007661936274904946e+01 -6.423845450050224670e+00 7.398500539233924655e+01 -1.012211594257498426e+01 -1.007661936274904946e+01 -1.012211594257498426e+01 9.230484836001153326e+01
7.863458123681080281e+01 -8.290611833590567414e+00 -2.382148535564305902e+01 -8.290611833590567414e+00 1.066969977833715717e+02 8.973206042428959195e-02 -2.382148535564305902e+01 8.973206042428959195e-02 9.145753519052402680e+01
1.145655779100693081e+02 -2.875063719810684315e+00 -4.797949018978542313e+00 -2.875063719810684315e+00 9.501063376042722552e+01 9.451114145867082428e+00 -4.797949018978542313e+00 9.451114145867082428e+00 8.351867303379667362e+01
7.862507448878749017e+01 2.211487857400596013e+01 1.201924571521024998e-01 2.211487857400596013e+01 8.328939549345849969e+01 -2.344528975529128090e+01 1.201924571521024998e-01 -2.344528975529128090e+01 7.009650293171499413e+01
7.297467089577818911e+01 7.369136328757781129e+00 -2.357232125056220440e+01 7.369136328757781129e+00 4.771538690923934212e+01 -3.428249746372318829e-01 -2.357232125056220440e+01 -3.428249746372318829e-01 7.418896394049282605e+01
8.815394025241680254e+01 1.249812389497728304e+01 -7.993428950228609331e-01 1.249812389497728304e+01 8.691263058194198265e+01 -7.510767472778821841e+00 -7.993428950228609331e-01 -7.510767472778821841e+00 8.057099910076698279e+01
8.103527763178389876e+01 5.358750144722129960e+00 1.213419976018623281e+01 5.358750144722129960e+00 5.714297670413031938e+01 -1.389304515213520119e+01 1.213419976018623281e+01 -1.389304515213520119e+01 8.142961365948632135e+01
1.117955249528632606e+02 -7.855629607706767992e+00 -2.162620262331692444e+01 -7.855629607706767992e+00 9.785096874766288977e+01 3.454160485117537149e+01 -2.162620262331692444e+01 3.454160485117537149e+01 6.912681463333531440e+01
6.458098845224080264e+01 8.436947847806827383e+00 5.944433728302289666e+00 8.436947847806827383e+00 7.082270207153794672e+01 -4.130730519953392132e+00 5.944433728302289666e+00 -4.130730519953392132e+00 7.511742399489378386e+01
1.073136268018440092e+02 8.177161406924398079e+00 -1.224803821738396614e+01 8.177161406924398079e+00 9.064519327269374571e+01 1.585555806933908229e+01 -1.224803821738396614e+01 1.585555806933908229e+01 1.142162534240283662e+02
8.575678463604424451e+01 9.858594707826247472e+00 -1.194464684551697609e+01 9.858594707826247472e+00 9.588816480756032945e+01 1.686196375676804493e+01 -1.194464684551697609e+01 1.686196375676804493e+01 9.341878700850033113e+01
7.089434220842802858e+01 -9.392279016518615409e-01 1.820125113646290416e+01 -9.392279016518615409e-01 8.057463688700040905e+01 4.404102879822223571e+01 1.820125113646290416e+01 4.404102879822223571e+01 8.317342286833715548e+01
6.628318138658134728e+01 -2.054912687532677307e+00 -8.691883907044700708e-01 -2.054912687532677307e+00 1.234248484876676457e+02 8.557237312591821521e+00 -8.691883907044700708e-01 8.557237312591821521e+00 1.088837923478197354e+02
1.171191098306623672e+02 6.636437677531122681e+00 -1.395677916694466880e+01 6.636437677531122681e+00 8.306996422785877598e+01 1.600732651099724535e+01 -1.395677916694466880e+01 1.600732651099724535e+01 1.045713665314612655e+02
8.783915048368508849e+01 2.117482610747452476e+00 3.418937013614770315e+00 2.117482610747452476e+00 9.750727070432962762e+01 -2.004905252777302849e+01 3.418937013614770315e+00 -2.004905252777302849e+01 9.202192559868458943e+01
1.261364058422403360e+02 -1.144796776511442182e+01 7.964569179443499181e+00 -1.144796776511442182e+01 8.211298392938783763e+01 -1.951968187508616737e+01 7.964569179443499181e+00 -1.951968187508616737e+01 9.216981373502710539e+01
8.404362983918699115e+01 -2.031921878537481074e+00 5.037024330238716985e+00 -2.031921878537481074e+00 9.406665248476369356e+01 1.095759418084978876e+01 5.037024330238716985e+00 1.095759418084978876e+01 7.851210910028575540e+01
9.352437981690231084e+01 9.793939120504314033e+00 -1.968119958384988877e+01 9.793939120504314033e+00 1.276938148844908909e+02 -5.009474162497637550e+00 -1.968119958384988877e+01 -5.009474162497637550e+00 9.509347827891623695e+01
8.821005916804431024e+01 -1.225604134709748294e+01 2.051886049386474298e+01 -1.225604134709748294e+01 7.621763606332845598e+01 -1.143186449805449589e+00 2.051886049386474298e+01 -1.143186449805449589e+00 6.636219410357116999e+01
1.043673594794912418e+02 9.630432755266324918e-01 -6.286385634243501386e+00 9.630432755266324918e-01 1.199906812756889565e+02 -1.674332342174220400e+01 -6.286385634243501386e+00 -1.674332342174220400e+01 9.799119328100699988e+01
5.510091752795572262e+01 -1.091859711242755893e+01 -9.744416723913394973e-01 -1.091859711242755893e+01 9.975474354315117864e+01 1.847995406575910216e-01 -9.744416723913394973e-01 1.847995406575910216e-01 7.170998238577659833e+01
9.095236794224349808e+01 1.305480219632299876e+00 -1.932974092988534620e+00 1.305480219632299876e+00 7.363378925745692527e+01 -2.231777003819774308e+01 -1.932974092988534620e+00 -2.231777003819774308e+01 5.269959058336883828e+01
6.354926377262725623e+01 -3.929924719868765681e+00 1.709584915966854624e+01 -3.929924719868765681e+00 7.584333211181805723e+01 -1.810647467912827580e+01 1.709584915966854624e+01 -1.810647467912827580e+01 7.429547832140727337e+01
7.961149660384087667e+01 -7.125695674017505921e-01 8.916456577187652499e-01 -7.125695674017505921e-01 8.375896094046797202e+01 -1.531726271442623499e+01 8.916456577187652499e-01 -1.531726271442623499e+01 7.763166782416593037e+01
7.061859801193502051e+01 -1.503162373937832186e+01 2.244368594569042585e+00 -1.503162373937832186e+01 8.798369185669287162e+01 8.068609865719229557e-01 2.244368594569042585e+00 8.068609865719229557e-01 5.795265091205608599e+01
1.160112341592292893e+02 -7.726948982676691280e+00 -1.778877468140984419e+01 -7.726948982676691280e+00 1.026288856904494082e+02 2.845379384146000223e+00 -1.778877468140984419e+01 2.845379384146000223e+00 1.140929082188072954e+02
1.057818277746767137e+02 3.073250313807250667e+00 5.324360938862226611e+00 3.073250313807250667e+00 9.335408291736193576e+01 -1.859505362218441959e+01 5.324360938862226611e+00 -1.859505362218441959e+01 1.019379488251823744e+02
7.763627568672825419e+01 -3.580551730011382716e+00 -1.183507672416645207e+01 -3.580551730011382716e+00 9.564239596963066958e+01 -2.518463661302912993e+00 -1.183507672416645207e+01 -2.518463661302912993e+00 7.028474624334020859e+01
1.048015656443119070e+02 -4.231618458160161467e+00 -1.299916831885993851e+01 -4.231618458160161467e+00 4.817287490595387567e+01 -1.112367124835939336e+01 -1.299916831885993851e+01 -1.112367124835939336e+01 8.717988661055701982e+01
7.966664544313948682e+01 -7.249913947934589764e+00 6.701772318283293339e-01 -7.249913947934589764e+00 1.087781025317848531e+02 -6.549082304112665120e+00 6.701772318283293339e-01 -6.549082304112665120e+00 9.568226610674891219e+01
7.961372777939737944e+01 -6.166484199990072135e+00 -3.907952491018926167e-01 -6.166484199990072135e+00 1.228040481409808962e+02 1.929510920494321624e+01 -3.907952491018926167e-01 1.929510920494321624e+01 1.031784824345940734e+02
9.970648224578785346e+01 -1.435276432440623573e+01 -4.820454789809282659e+00 -1.435276432440623573e+01 1.199112320243511363e+02 -2.075138778990476496e+01 -4.820454789809282659e+00 -2.075138778990476496e+01 1.041061179241154377e+02
6.265063356534032124e+01 -7.448246053380493059e+00 -1.000575528692208138e+01 -7.448246053380493059e+00 9.784500277824008663e+01 -8.809214639026514249e+00 -1.000575528692208138e+01 -8.809214639026514249e+00 6.698915443494649935e+01
1.177788102381384476e+02 -4.306993388916564136e+00 -5.625230112274047123e+00 -4.306993388916564136e+00 1.118214259908451993e+02 8.553551022541958204e+00 -5.625230112274047123e+00 8.553551022541958204e+00 6.641549979784484492e+01
8.621509719763834312e+01 -3.226425366142334994e+00 -2.374843860807604123e+00 -3.226425366142334994e+00 1.129049042426061504e+02 -5.700217012498885794e+00 -2.374843860807604123e+00 -5.700217012498885794e+00 6.295286084561261930e+01
7.436619688578491605e+01 -1.228984850716004118e+01 1.464194407805467613e+01 -1.228984850716004118e+01 7.652995213742143221e+01 6.340030855232293483e+00 1.464194407805467613e+01 6.340030855232293483e+00 6.208202332514900235e+01
1.015330874693112690e+02 8.440294611141570869e+00 2.868467200774087900e+00 8.440294611141570869e+00 7.356287667781352013e+01 5.975136644112330586e+00 2.868467200774087900e+00 5.975136644112330586e+00 7.284206146161601225e+01
1.074947885562681904e+02 -8.840499600633902944e+00 3.350192554566475422e+01 -8.840499600633902944e+00 1.171041706551971373e+02 -5.119238299113945345e+00 3.350192554566475422e+01 -5.119238299113945345e+00 9.679683530485148424e+01
9.670986796196459068e+01 9.700763289112389609e-01 -4.152896764069013535e+00 9.700763289112389609e-01 1.075276741438182739e+02 -6.636389173714676737e+00 -4.152896764069013535e+00 -6.636389173714676737e+00 7.050296491352879968e+01
1.155689278570622065e+02 -6.072677818984355547e-01 -1.570102491014352175e+01 -6.072677818984355547e-01 8.761579040895328774e+01 -2.407821605608941695e+01 -1.570102491014352175e+01 -2.407821605608941695e+01 8.322052007410580643e+01
6.383854053390858496e+01 4.056616688424573347e+00 3.572645607930756029e+00 4.056616688424573347e+00 9.143415635099725591e+01 1.034256578832006568e+01 3.572645607930756029e+00 1.034256578832006568e+01 7.907926422598372085e+01
9.244512139717210175e+01 1.029377094897582801e+01 9.227657063502379131e+00 1.029377094897582801e+01 8.619671425120547781e+01 -6.965439064481368625e+00 9.227657063502379131e+00 -6.965439064481368625e+00 7.606727423234721641e+01
9.267595105963654589e+01 -1.006822820250396511e+01 -1.380452568712204986e+01 -1.006822820250396511e+01 9.277873064668467862e+01 -1.541582246944361678e+01 -1.380452568712204986e+01 -1.541582246944361678e+01 9.095581171321113345e+01
9.088402606487170488e+01 3.300442190038262780e+00 1.623859270780968256e+00 3.300442190038262780e+00 9.249183057240918515e+01 1.897348039809269338e+01 1.623859270780968256e+00 1.897348039809269338e+01 7.455380964779635633e+01
8.818803843537803289e+01 -6.606316807518428647e+00 -2.715767485840169826e+01 -6.606316807518428647e+00 5.084980053558444268e+01 -1.055501250435162675e+01 -2.715767485840169826e+01 -1.055501250435162675e+01 7.332127916809817236e+01
