-1.664124296550000054e+03
-1.658057898609999938e+03
-1.662901404510000020e+03
-1.665126623670000072e+03
-1.662801570589999983e+03
-1.662282967670000062e+03
-1.658025145950000024e+03
-1.659755791719999934e+03
-1.664385247449999952e+03
-1.667947672689999990e+03
-1.661312210710000045e+03
-1.664484778239999969e+03
-1.657080648760000031e+03
-1.660789182400000072e+03
-1.662048011459999998e+03
-1.668775984269999981e+03
-1.663850799210000105e+03
-1.659755244010000069e+03
-1.658665568520000079e+03
-1.661699349799999936e+03
-1.660683237349999899e+03
-1.666740320030000021e+03
-1.658936856390000003e+03
-1.665772396040000103e+03
-1.654469063089999963e+03
-1.659291056199999957e+03
-1.660199777929999982e+03
-1.665668556670000044e+03
-1.664155291479999960e+03
-1.661426402309999958e+03
-1.663274246310000080e+03
-1.663653015719999985e+03
-1.661537452979999898e+03
-1.659700109419999990e+03
-1.681923718580000013e+03
-1.664662667920000104e+03
-1.657906699019999905e+03
-1.665282279980000112e+03
-1.658947042519999968e+03
-1.663676070989999971e+03
-1.666012432689999969e+03
-1.663837707140000020e+03
-1.663388493299999936e+03
-1.660995987069999956e+03
-1.660082371210000019e+03
-1.667817341209999995e+03
-1.661047837909999998e+03
-1.657580762540000023e+03
-1.659605597450000005e+03
-1.663355647099999942e+03
-1.656068285349999996e+03
-1.664099236669999982e+03
-1.656566558470000018e+03
-1.661426913130000003e+03
-1.662441631740000048e+03
-1.659952509149999969e+03
-1.660211936740000056e+03
-1.661595173380000006e+03
-1.661376917900000080e+03
-1.664049025609999944e+03
-1.665363810249999915e+03
-1.661833001680000052e+03
-1.659810183659999893e+03
-1.660573287120000032e+03
-1.661347014639999998e+03
-1.663330150300000014e+03
-1.658665645249999898e+03
-1.660946109429999979e+03
-1.679935368950000111e+03
-1.660518385150000086e+03
-1.660978189019999945e+03
-1.678303100869999980e+03
-1.663539615350000076e+03
-1.662079655750000029e+03
-1.657770782379999901e+03
-1.662526312469999993e+03
-1.665300468700000010e+03
-1.658586617749999959e+03
-1.661222812129999966e+03
-1.661478761379999924e+03
-1.661454943610000100e+03
-1.666232498889999988e+03
-1.663107845309999902e+03
-1.661976000319999912e+03
-1.662961262439999928e+03
-1.664061869950000073e+03
-1.662464740590000019e+03
-1.664004020269999955e+03
-1.653328667429999996e+03
-1.661993737920000058e+03
-1.662768206330000112e+03
-1.661392739690000099e+03
-1.659610223409999890e+03
-1.656609046170000056e+03
-1.660856657730000052e+03
-1.661475691939999933e+03
-1.660499138670000093e+03
-1.667179773029999978e+03
-1.661856186759999900e+03
-1.662310884680000072e+03
-1.661402264629999991e+03
-1.659791680510000106e+03
-1.661914521070000092e+03
-1.658719401490000109e+03
-1.656889016150000089e+03
-1.663771419220000098e+03
-1.664251634429999967e+03
-1.652125617989999910e+03
-1.662205695000000105e+03
-1.664053173049999941e+03
-1.660600340510000024e+03
-1.657964202339999929e+03
-1.663694691749999947e+03
-1.663263261770000099e+03
-1.660513713569999936e+03
-1.662507238539999889e+03
-1.661395932859999903e+03
-1.661224781030000031e+03
-1.662605159019999974e+03
-1.661255921089999902e+03
-1.664351081909999948e+03
-1.660033281859999988e+03
-1.662157552930000065e+03
-1.685002496370000017e+03
-1.658903950099999975e+03
-1.657992296399999987e+03
-1.661631817510000019e+03
-1.658174633849999964e+03
-1.664228664149999986e+03
-1.664519204879999961e+03
-1.664917682560000003e+03
-1.659942005339999923e+03
-1.659451826279999977e+03
-1.657697274769999922e+03
-1.670363433020000002e+03
-1.661753959820000091e+03
-1.662961307349999970e+03
