2.140930000000000000e+00 6.116509999999999891e+00 5.867840000000000167e+00 1.707689999999999841e+01 8.298149999999999693e+00 1.587509999999999977e+01 2.331560000000000077e+00 1.486819999999999986e+01 1.081540000000000035e+01 2.327999999999999847e+00 1.468769999999999953e+01 2.136349999999999838e+01 7.467640000000000278e+00 1.007010000000000005e+01 8.784800000000000608e+00 1.110100000000000087e+01 9.105000000000000426e+00 7.530940000000000190e+00 7.032960000000000100e+00 2.361320000000000086e+00 5.496100000000000207e+00 7.696539999999999715e+00 1.657450000000000045e+01 2.152759999999999962e+01 4.155470000000000219e+00 3.935360000000000191e+00 1.551069999999999993e+01 2.074860000000000149e+00 2.834859999999999935e+00 5.380230000000000068e+00 1.934439999999999937e+00 1.039220000000000077e+01 1.263059999999999938e+01 2.294799999999999951e+00 6.245639999999999858e+00 1.934890000000000043e+01 1.483629999999999960e+01 5.738749999999999574e+00 1.545659999999999989e+01 1.080869999999999997e+01 1.982099999999999973e+00 2.182799999999999940e+01 1.094940000000000069e+01 9.840350000000000819e+00 1.316119999999999912e+01 1.508130000000000059e+01 1.043270000000000053e+01 4.265360000000000262e+00 2.350919999999999899e+00 2.804060000000000219e+00 2.172140000000000182e+00 2.693480000000000096e+00 1.082349999999999923e+01 1.958520000000000039e+01 2.700950000000000184e+00 2.262270000000000003e+00 1.060979999999999990e+01 1.729179999999999851e+01 1.726879999999999882e+01 1.566639999999999944e+01 1.531070000000000064e+01 6.108290000000000219e+00 7.075380000000000003e+00 1.062979999999999947e+01 2.137270000000000003e+00 1.524590000000000067e+01 6.754870000000000374e+00 1.578190000000000026e+01 3.601420000000000066e+00 9.132429999999999382e+00 1.661339999999999861e+01 1.585069999999999979e+01 4.812299999999999578e+00 4.431110000000000326e+00 9.639540000000000219e+00 1.790350000000000108e+00 1.740960000000000063e+00 1.716310000000000002e+01 1.508729999999999905e+00 1.098419999999999952e+01 3.307949999999999946e+00 1.860020000000000007e+00 1.034929999999999950e+01 1.665850000000000009e+01 1.401870000000000083e+01 2.953899999999999970e+00 9.966169999999999973e+00 1.580630000000000024e+01 2.111260000000000137e+00 1.993850000000000122e+01 6.034379999999999633e+00 5.826570000000000249e+00 5.824419999999999931e+00 1.080509999999999948e+01 1.092040000000000077e+01 9.782840000000000202e+00 1.934509999999999952e+00 1.510159999999999947e+00 1.311710000000000065e+01 1.885040000000000049e+00 2.072970000000000201e+00 2.071760000000000090e+01 6.895099999999999563e-01 8.818210000000000548e+00 9.133660000000000778e+00 2.497860000000000191e+00 1.048639999999999972e+01 2.274650000000000105e+01 1.103880000000000017e+01 1.313579999999999970e+00 1.255959999999999965e+01 1.177650000000000041e+01 5.134859999999999758e+00 2.197500000000000142e+01 5.288710000000000022e+00 1.277570000000000050e+01 9.097860000000000724e+00 1.035769999999999946e+01 9.987959999999999283e+00 2.139709999999999823e+01 7.589900000000000535e-01 7.508440000000000225e+00 3.312660000000000160e+00 4.250060000000000393e+00 1.325960000000000072e+01 1.562410000000000032e+01 4.706579999999999764e+00 1.306209999999999916e+01 2.944890000000000008e+00 2.054930000000000145e+00 1.501679999999999993e+01 1.482089999999999996e+01 1.089559999999999995e+01 5.557430000000000092e+00 9.682740000000000791e+00 8.709910000000000707e+00 3.856129999999999836e+00 1.209070000000000000e+01 1.054090000000000060e+01 1.466859999999999964e+01 1.201580000000000048e+01 1.344020000000000081e+01 4.925999999999999823e-01 1.894109999999999872e+01 2.095410000000000217e+00 7.472430000000000128e+00 2.281139999999999901e+01 1.931629999999999958e+00 6.438449999999999562e+00 9.001150000000000873e+00 2.229060000000000041e+00 1.572840000000000060e+01 3.145309999999999828e+00 1.696209999999999951e+01 1.314949999999999974e+01 1.180209999999999937e+01 1.005700000000000038e+01 6.774569999999999759e+00 3.755830000000000002e+00 1.323370000000000068e+01 8.225730000000000430e+00 1.328400000000000070e+01 9.905480000000000729e+00 1.499160000000000004e+01 2.455470000000000041e+01 1.508500000000000085e+01 1.105030000000000001e+01 1.556140000000000079e+01 4.614589999999999748e+00 5.048309999999999853e+00 3.005650000000000155e+00 1.545289999999999964e+01 6.089319999999999844e+00 1.778089999999999904e+01 1.940600000000000103e+00 1.462250000000000050e+01 2.478549999999999898e+01 6.527929999999999566e+00 1.507959999999999923e+01 1.817689999999999984e+01 9.404210000000000846e+00 8.907800000000000162e-01 3.494520000000000071e+00 1.453640000000000043e+01 1.986609999999999987e+00 1.572910000000000075e+01 7.023600000000000065e+00 6.891740000000000421e+00 3.434959999999999791e+00 1.140980000000000061e+01 1.500709999999999944e+01 1.544960000000000022e+01 1.068050000000000033e+01 3.899199999999999999e+00 5.617779999999999774e+00 1.554219999999999935e+01 1.052050000000000018e+01 2.220639999999999858e+01 2.486790000000000056e+00 1.118520000000000003e+01 9.722989999999999355e+00 1.670989999999999975e+00 1.168989999999999974e+01 1.629999999999999939e-03 1.553539999999999921e+01 1.793849999999999945e+00 5.972760000000000069e+00 1.065310000000000024e+01 6.544039999999999857e+00 1.329720000000000013e+01 1.373820000000000086e+01 1.339289999999999914e+01 8.189690000000000580e+00 1.137390000000000079e+01 1.518420000000000059e+01 1.928350000000000009e+01 2.390390000000000015e+00 7.431350000000000122e+00 7.333600000000000119e-01 4.038710000000000022e+00 8.462009999999999366e+00 1.336860000000000070e+01 3.715209999999999901e+00 6.213400000000000034e-01 2.290200000000000014e-01 4.421680000000000277e+00 1.708000000000000074e-01 1.303459999999999930e+01 1.325089999999999968e+01 7.927669999999999995e+00 4.539799999999999947e-01 1.553389999999999915e+01 1.073339999999999961e+01 1.184890000000000043e+01 1.384440000000000026e+01 3.372499999999999942e-01 4.081400000000000028e-01 1.281620000000000026e+01 1.632189999999999941e+01 1.292459999999999987e+01 1.330059999999999931e+01 1.728559999999999874e+01 6.444230000000000125e+00 1.908199999999999896e+00 6.456929999999999836e+00 1.591750000000000043e+01 4.581660000000000288e+00 1.726670000000000016e+01 6.584509999999999863e+00 4.673180000000000334e+00 1.718080000000000140e+01 1.905450000000000088e+01 1.087500000000000000e+01 1.582869999999999955e+01 5.964409999999999989e+00 1.041709999999999958e+01 6.249889999999999723e+00 1.843280000000000030e+01 1.088039999999999985e+01 1.498000000000000043e+01 9.629870000000000374e+00 1.718290000000000006e+01 1.734530000000000172e+01 2.161329999999999885e+01 6.702429999999999666e+00 2.099289999999999878e+00 8.937219999999999942e+00 4.366609999999999658e+00 5.101950000000000429e+00 2.038769999999999882e+01 6.552260000000000417e+00 1.009490000000000087e+01 1.326319999999999943e+01 6.455659999999999954e+00 1.068190000000000062e+01 7.144800000000000040e-01 1.510260000000000069e+01 2.018269999999999786e+00 2.548259999999999970e+00 2.910099999999999909e-01 1.269420000000000037e+01 1.768939999999999912e+01 1.500450000000000017e+01 1.090029999999999966e+01 1.925949999999999918e+01 1.479540000000000077e+01 1.075150000000000006e+01 1.112919999999999909e+00 8.778209999999999624e+00 4.531729999999999592e+00 2.472779999999999845e+01 6.957250000000000156e+00 1.793690000000000007e+00 1.582820000000000071e+01 6.464750000000000441e+00 1.108699999999999974e+01 4.210350000000000037e+00 6.616920000000000357e+00 1.079979999999999940e+01 1.595940000000000047e+01 1.479209999999999958e+01 2.575579999999999981e+00 2.263919999999999888e+01 1.508409999999999940e+01 1.589669999999999916e+00 1.296529999999999916e+01 1.427100000000000080e+01 6.508449999999999847e+00 3.837229999999999919e+00 1.284440000000000026e+01 1.211950000000000038e+01 1.531460000000000043e+01 6.430240000000000400e+00 7.933880000000000265e+00 6.537699999999999623e-01 6.087889999999999802e+00 6.046739999999999782e+00 1.609819999999999851e+01 5.912600000000000300e+00 1.564600000000000080e+01 9.848599999999999577e-01 1.097550000000000026e+01 2.145690000000000097e+00 9.128569999999999851e+00 1.316549999999999976e+01 3.511060000000000070e+00 3.293439999999999923e+00 1.063330000000000020e+01 6.799640000000000128e+00 3.358099999999999974e-01 1.525949999999999918e+01 1.527899999999999991e+01 5.666900000000000048e+00 1.493689999999999962e+01 1.497860000000000014e+01 1.706599999999999895e+01 6.587509999999999977e+00 6.792550000000000310e+00 1.888960000000000150e+01 1.008070000000000022e+01 9.687559999999999505e+00 1.612900000000000134e+01 5.507319999999999993e+00 1.501270000000000060e+01 2.363769999999999882e+01 6.472909999999999719e+00 1.498990000000000045e+01 1.415700000000000003e+01 1.086999999999999922e+01 2.028500000000000192e+00 3.011199999999999988e-01 1.490770000000000017e+01 6.260270000000000223e+00 1.022160000000000046e+01 1.405780000000000030e+01 1.419100000000000072e+01 2.688019999999999854e+00 1.629390000000000072e+01 1.553330000000000055e+01 8.219300000000000495e+00 6.726750000000000007e+00 2.551089999999999858e+00 2.457039999999999935e+01 6.541660000000000252e+00 1.678360000000000074e+00 1.174300000000000033e+01 8.785050000000000026e+00 1.236190000000000033e+01 5.951950000000000074e+00 5.750689999999999635e+00 1.085710000000000086e+01 1.961169999999999902e+01 2.268349999999999866e+00 1.511609999999999943e+01 7.654779999999999696e+00 1.455170000000000030e+01 1.468079999999999963e+01 2.296640000000000015e+01 3.817999999999999866e-02 1.271369999999999933e+01 5.745269999999999655e+00 1.024929999999999986e+01 6.616670000000000051e+00 1.573259999999999970e+01 7.189519999999999911e+00 6.908179999999999765e+00 8.748810000000000642e+00 4.311910000000000132e+00 8.951959999999999695e+00 1.988070000000000093e+01 6.371319999999999872e+00 1.476900000000000013e+01 1.019059999999999988e+01 1.097289999999999921e+01 1.536209999999999987e+01 2.186949999999999861e+01 1.719889999999999830e+01 3.970120000000000093e+00 5.749329999999999607e+00 1.520490000000000030e+01 6.606060000000000265e+00 2.175130000000000052e+01 1.660300000000000153e+01 7.544800000000000395e-01 9.207110000000000127e+00 1.005250000000000021e+01 1.037720000000000020e+01 3.516249999999999876e+00 6.143699999999999939e+00 2.965279999999999916e+00 2.323850000000000193e+00 6.653590000000000337e+00 2.266539999999999999e+00 2.118740000000000023e+01 4.980129999999999946e+00 8.279479999999999507e+00 6.933980000000000032e+00 6.572689999999999699e+00 1.131559999999999988e+01 2.278140000000000143e+01 1.117779999999999951e+01 1.453009999999999913e+01 2.289870000000000072e+00 1.672790000000000177e+01 1.638939999999999841e+01 3.882859999999999978e+00 1.480410000000000004e+01 1.034639999999999915e+01 7.578020000000000422e+00 1.324179999999999957e+01 8.901540000000000674e+00 1.934100000000000108e+01 1.032300000000000040e+01 6.460040000000000227e+00 7.295910000000000117e+00 8.939880000000000493e+00 3.537479999999999958e+00 1.868769999999999953e+01 7.815000000000000391e+00 1.544960000000000022e+01 7.096669999999999590e+00 9.339199999999999946e+00 1.245630000000000059e+01 1.865319999999999823e+01 1.504630000000000045e+01 6.265270000000000117e+00 1.406509999999999927e+00 1.210600000000000009e-01 4.860780000000000101e+00 1.847490000000000165e+01 2.429330000000000211e+00 1.084280000000000044e+01 6.086769999999999570e+00 2.205929999999999946e+00 1.556209999999999916e+01 1.821519999999999939e+01 6.442379999999999995e+00 6.268460000000000143e+00 1.201030000000000086e+01 6.598950000000000315e+00 7.137109999999999843e+00 2.201810000000000045e+01 8.868629999999999569e+00 1.266419999999999924e+01 1.197160000000000046e+01 1.036410000000000053e+01 1.129940000000000033e+01 2.514570000000000149e+01 6.311600000000000543e-01 4.556379999999999875e+00 1.220250000000000057e+01 3.673799999999999844e-01 4.558010000000000339e+00 2.452420000000000044e+01 1.648479999999999990e+01 1.551609999999999978e+01 1.124349999999999916e+01 1.320219999999999949e+01 1.260340000000000060e+01 2.211550000000000082e+01 4.735179999999999723e+00 8.780630000000000379e+00 1.027560000000000073e+01 4.602400000000000269e+00 8.803910000000000124e+00 2.325560000000000116e+01 4.252069999999999794e+00 1.715299999999999869e+01 1.007760000000000034e+01 1.340049999999999919e+01 1.703030000000000044e+01 9.611689999999999401e+00 8.797850000000000392e+00 4.431630000000000180e+00 2.595670000000000144e+00 8.453139999999999432e+00 4.322320000000000384e+00 1.543309999999999960e+01 8.694419999999999149e+00 1.291559999999999953e+01 1.535829999999999984e+01 9.177000000000000435e-02 4.678560000000000052e+00 2.177140000000000075e+00 2.850000000000000103e-02 4.027849999999999930e+00 8.751860000000000639e+00 1.722449999999999903e+01 4.335910000000000153e+00 2.123959999999999937e+01 2.827899999999999858e-01 1.262839999999999918e+01 8.682570000000000121e+00 8.554050000000000153e+00 4.154889999999999972e+00 8.951969999999999317e+00 4.479280000000000150e+00 1.701249999999999929e+01 1.617689999999999984e+01 4.173440000000000261e+00 8.695059999999999789e+00 3.604060000000000041e+00 4.019940000000000069e+00 8.409720000000000084e+00 1.656810000000000116e+01 1.297480000000000011e+01 8.453749999999999432e+00 1.610330000000000084e+01 4.378739999999999633e+00 1.720479999999999876e+01 2.243400000000000105e+01 1.294139999999999979e+01 8.375080000000000524e+00 1.002549999999999919e+01 1.314419999999999966e+01 8.708050000000000068e+00 2.287049999999999983e+01 1.333990000000000009e+01 1.725969999999999871e+01 2.212800000000000011e+01 8.695240000000000080e+00 1.299189999999999934e+01 2.482749999999999790e+00 1.738299999999999912e+01 4.111469999999999736e+00 1.528180000000000049e+01 3.273900000000000143e-01 1.324740000000000073e+01 2.622720000000000162e+00 1.691159999999999997e+01 1.281409999999999982e+01 1.483000000000000007e+01 1.722240000000000038e+01 1.310670000000000002e+01 2.149889999999999901e+01 8.620609999999999218e+00 4.756439999999999557e+00 2.149739999999999895e+01 8.822689999999999699e+00 1.313049999999999962e+01 8.666270000000000806e+00 8.610319999999999752e+00 1.304209999999999958e+01 2.157809999999999917e+01 4.243900000000000006e+00 4.730699999999999905e-01 3.282480000000000064e+00 1.258179999999999943e+01 1.713540000000000063e+01 3.684880000000000155e+00 1.298850000000000016e+01 1.706650000000000134e+01 1.625799999999999912e+01 1.283810000000000073e+01 9.379289999999999239e+00 3.718269999999999964e+00 4.093169999999999753e+00 4.215580000000000105e+00 1.248520000000000074e+01 4.244810000000000194e+00 4.837229999999999919e+00 2.500939999999999941e+01 4.290180000000000327e+00 1.279599999999999937e+01 1.250380000000000003e+01 4.178969999999999629e+00 1.293239999999999945e+01 6.248999999999999694e-02 1.328369999999999962e+01 3.935109999999999886e+00 1.265680000000000049e+01 1.300949999999999918e+01 4.278150000000000119e+00 2.507580000000000098e+01 1.302149999999999963e+01 1.280620000000000047e+01 1.238279999999999959e+01 1.280240000000000045e+01 1.321889999999999965e+01 2.503480000000000061e+01 8.600120000000000431e+00 8.606709999999999638e+00 6.210029999999999717e+00 8.816259999999999764e+00 8.546789999999999665e+00 1.890530000000000044e+01 8.897569999999999979e+00 4.253100000000000214e-01 6.119209999999999816e+00 8.787570000000000547e+00 1.728659999999999997e+01 1.883340000000000103e+01 1.724159999999999826e+01 8.752380000000000493e+00 5.972739999999999938e+00 1.489000000000000046e-02 8.638740000000000308e+00 1.901679999999999993e+01 3.899199999999999888e-01 6.324000000000000454e-02 6.256829999999999892e+00 1.726109999999999900e+01 1.703150000000000119e+01 1.882689999999999841e+01 1.722490000000000165e+01 6.698710000000000164e+00 1.307180000000000009e+00 1.873299999999999965e-01 5.891370000000000218e+00 1.437129999999999974e+01 4.057200000000000251e-01 1.485849999999999937e+01 1.451319999999999943e+00 1.690879999999999939e+01 1.455070000000000086e+01 1.368239999999999945e+01 8.515990000000000393e+00 6.453409999999999869e+00 1.678960000000000008e+00 8.475089999999999790e+00 6.262760000000000105e+00 1.425810000000000066e+01 8.499330000000000496e+00 1.464460000000000051e+01 1.200609999999999955e+00 8.847580000000000666e+00 1.456789999999999985e+01 1.353340000000000032e+01 2.546100000000000030e-01 2.522559999999999913e+00 1.024440000000000062e+01 1.708079999999999998e+01 2.099279999999999813e+00 2.200290000000000035e+01 1.697380000000000067e+01 1.093779999999999930e+01 9.923069999999999169e+00 2.615999999999999923e-02 1.181499999999999950e+01 2.280219999999999914e+01 8.720919999999999561e+00 2.132350000000000190e+00 1.012090000000000067e+01 8.370810000000000528e+00 2.903230000000000199e+00 2.274830000000000041e+01 8.613329999999999487e+00 1.148709999999999987e+01 9.930740000000000123e+00 8.897009999999999863e+00 1.129310000000000080e+01 2.274909999999999854e+01 1.685800000000000054e+01 7.052459999999999951e+00 4.900310000000000166e+00 4.415999999999999925e-01 6.986040000000000028e+00 1.776129999999999853e+01 8.967699999999999561e-01 1.563339999999999996e+01 5.493549999999999933e+00 2.212099999999999900e-01 1.551319999999999943e+01 1.731330000000000169e+01 8.552670000000000883e+00 6.735730000000000217e+00 5.369950000000000223e+00 8.502900000000000347e+00 7.222199999999999953e+00 1.744170000000000087e+01 9.044850000000000279e+00 1.625649999999999906e+01 4.611769999999999925e+00 8.996769999999999712e+00 1.554829999999999934e+01 1.771880000000000166e+01 1.726350000000000051e+01 2.922730000000000050e+00 9.091299999999999937e-01 1.730280000000000129e+01 2.366629999999999789e+00 1.400339999999999918e+01 8.508999999999999897e-02 1.126319999999999943e+01 1.458560000000000079e+00 1.658249999999999957e+01 1.102490000000000059e+01 1.376130000000000031e+01 8.136419999999999320e+00 2.980900000000000105e+00 1.164949999999999930e+00 8.902409999999999712e+00 2.529399999999999871e+00 1.405129999999999946e+01 8.459580000000000766e+00 1.124140000000000050e+01 1.457629999999999981e+00 8.645239999999999370e+00 1.059479999999999933e+01 1.427800000000000047e+01 1.751630000000000020e+00 8.515359999999999374e+00 6.797200000000000131e+00 1.760909999999999975e+00 8.571350000000000691e+00 2.015060000000000073e+01 2.041640000000000121e+00 3.820999999999999952e-01 7.403710000000000235e+00 1.623040000000000038e+00 1.712600000000000122e+01 2.009720000000000084e+01 9.200850000000000861e+00 8.203969999999999985e+00 8.406729999999999592e+00 1.060040000000000049e+01 8.046519999999999229e+00 1.983180000000000121e+01 1.039209999999999923e+01 1.730260000000000176e+01 7.364329999999999821e+00 1.025859999999999950e+01 1.730320000000000036e+01 2.032620000000000005e+01 1.903299999999999992e+00 4.658640000000000114e+00 3.640080000000000204e+00 1.461780000000000079e+00 3.952370000000000161e+00 1.670739999999999981e+01 1.841290000000000093e+00 1.346749999999999936e+01 3.939869999999999983e+00 1.394050000000000011e+00 1.263979999999999926e+01 1.557290000000000063e+01 1.094079999999999941e+01 4.585700000000000109e+00 3.235829999999999984e+00 1.047359999999999935e+01 4.464209999999999567e+00 1.676490000000000080e+01 1.038829999999999920e+01 1.295299999999999940e+01 3.748600000000000154e+00 1.062679999999999936e+01 1.296889999999999965e+01 1.639359999999999928e+01 1.761279999999999957e+00 4.083210000000000228e+00 7.240470000000000184e+00 1.981219999999999981e+00 4.330619999999999692e+00 2.020769999999999911e+01 2.256079999999999863e+00 1.260629999999999917e+01 7.424719999999999764e+00 1.406309999999999949e+00 1.291619999999999990e+01 2.006830000000000069e+01 1.064579999999999949e+01 3.935280000000000111e+00 7.858069999999999666e+00 1.029620000000000068e+01 4.646029999999999660e+00 2.033279999999999887e+01 1.054080000000000084e+01 1.320570000000000022e+01 7.632150000000000212e+00 1.035909999999999975e+01 1.329059999999999953e+01 2.068299999999999983e+01 2.310670000000000002e+00 8.518549999999999400e+00 1.107460000000000022e+01 2.893100000000000005e+00 9.296409999999999840e+00 2.451170000000000115e+01 2.437739999999999796e+00 1.712450000000000117e+01 1.132779999999999987e+01 2.573949999999999960e+00 1.678470000000000084e+01 2.349950000000000117e+01 1.120720000000000027e+01 8.226369999999999294e+00 1.110229999999999961e+01 1.160389999999999944e+01 8.851440000000000197e+00 2.414480000000000004e+01 1.146950000000000003e+01 1.678590000000000160e+01 1.080180000000000007e+01 1.169609999999999950e+01 1.476699999999999957e-01 2.343900000000000006e+01 2.415140000000000065e+00 5.210200000000000387e-01 2.460469999999999935e+00 2.354000000000000092e+00 2.043999999999999984e-02 1.488920000000000066e+01 2.494629999999999903e+00 8.927400000000000446e+00 2.476780000000000204e+00 2.524469999999999992e+00 8.758250000000000313e+00 1.507049999999999912e+01 1.108840000000000003e+01 1.723509999999999920e+01 2.327049999999999841e+00 1.122780000000000022e+01 1.687910000000000110e+01 1.463819999999999943e+01 1.135449999999999982e+01 8.761409999999999698e+00 2.595639999999999947e+00 1.131780000000000008e+01 8.115230000000000388e+00 1.456900000000000084e+01 2.848040000000000127e+00 4.449530000000000207e+00 1.106060000000000088e+01 2.514180000000000081e+00 4.733249999999999957e+00 2.433589999999999876e+01 2.289629999999999832e+00 1.271279999999999966e+01 1.160859999999999914e+01 3.007680000000000131e+00 1.274510000000000076e+01 2.353679999999999950e+01 1.188150000000000084e+01 3.770620000000000083e+00 1.114860000000000007e+01 1.139949999999999974e+01 3.553459999999999841e+00 2.395980000000000132e+01 1.125629999999999953e+01 1.257240000000000002e+01 1.144400000000000084e+01 1.147560000000000002e+01 1.312010000000000076e+01 2.354269999999999996e+01 4.519129999999999647e+00 6.912390000000000256e+00 4.761840000000000295e+00 4.087550000000000239e+00 6.402319999999999567e+00 1.797520000000000095e+01 4.212749999999999773e+00 1.585670000000000002e+01 4.312630000000000408e+00 4.395310000000000272e+00 1.518219999999999992e+01 1.747159999999999869e+01 1.296739999999999959e+01 8.052659999999999485e+00 5.317540000000000155e+00 1.278480000000000061e+01 6.773119999999999585e+00 1.771780000000000044e+01 1.257559999999999967e+01 1.516629999999999967e+01 4.413750000000000284e+00 1.289240000000000030e+01 1.544510000000000005e+01 1.749930000000000163e+01 4.622080000000000410e+00 3.080830000000000179e+00 7.793600000000000527e-01 4.007010000000000183e+00 2.426229999999999887e+00 1.357049999999999912e+01 3.930120000000000058e+00 1.151079999999999970e+01 1.434690000000000021e+00 4.280800000000000161e+00 1.113299999999999912e+01 1.397519999999999918e+01 1.344459999999999944e+01 2.570129999999999804e+00 8.204299999999999926e-01 1.310570000000000057e+01 1.894910000000000094e+00 1.374039999999999928e+01 1.227280000000000015e+01 1.226449999999999996e+01 1.653000000000000025e+00 1.325559999999999938e+01 1.101260000000000083e+01 1.330519999999999925e+01 4.675869999999999749e+00 6.866170000000000329e+00 8.979269999999999641e+00 4.216719999999999580e+00 7.225799999999999557e+00 2.180039999999999978e+01 4.294929999999999914e+00 1.546359999999999957e+01 8.763999999999999346e+00 4.740709999999999980e+00 1.559149999999999991e+01 2.151389999999999958e+01 1.302909999999999968e+01 6.613970000000000127e+00 8.867300000000000182e+00 1.311650000000000027e+01 6.909659999999999691e+00 2.161720000000000041e+01 1.315920000000000023e+01 1.530630000000000024e+01 8.127940000000000609e+00 1.314899999999999913e+01 1.537609999999999921e+01 2.098029999999999973e+01 4.583420000000000272e+00 6.353220000000000312e+00 1.162490000000000023e+00 4.156299999999999883e+00 5.818990000000000329e+00 1.377679999999999971e+01 3.951179999999999914e+00 1.493800000000000061e+01 1.079700000000000104e+00 4.256680000000000241e+00 1.452749999999999986e+01 1.354570000000000007e+01 1.268190000000000062e+01 5.833899999999999864e+00 1.355949999999999989e+00 1.284259999999999913e+01 5.327149999999999608e+00 1.410660000000000025e+01 1.318319999999999936e+01 1.514799999999999969e+01 4.944999999999999951e-01 1.292220000000000013e+01 1.429679999999999929e+01 1.381150000000000055e+01 4.547810000000000130e+00 2.197490000000000165e+00 4.519870000000000054e+00 4.298420000000000130e+00 1.785239999999999938e+00 1.729830000000000112e+01 4.153080000000000105e+00 1.069630000000000081e+01 4.766339999999999577e+00 4.013760000000000439e+00 1.067680000000000007e+01 1.755920000000000059e+01 1.280209999999999937e+01 1.449880000000000058e+00 4.795709999999999695e+00 1.299290000000000056e+01 1.654470000000000107e+00 1.714539999999999864e+01 1.298509999999999920e+01 1.124520000000000053e+01 4.610579999999999679e+00 1.351570000000000071e+01 1.024409999999999954e+01 1.726569999999999894e+01 4.554520000000000124e+00 1.757870000000000044e+00 9.001849999999999241e+00 4.119970000000000354e+00 1.547579999999999956e+00 2.128000000000000114e+01 4.481510000000000105e+00 1.023579999999999934e+01 8.664730000000000487e+00 4.137279999999999625e+00 1.066150000000000020e+01 2.138179999999999836e+01 1.326040000000000063e+01 1.238709999999999978e+00 8.297810000000000130e+00 1.313930000000000042e+01 1.689570000000000016e+00 2.104860000000000042e+01 1.270350000000000001e+01 1.006670000000000087e+01 8.819300000000000139e+00 1.280790000000000006e+01 1.003609999999999935e+01 2.130399999999999849e+01 5.915919999999999845e+00 4.144490000000000229e+00 1.180429999999999957e+01 5.501310000000000144e+00 4.922189999999999621e+00 2.333239999999999981e+01 5.925080000000000346e+00 1.236219999999999963e+01 1.134900000000000020e+01 6.089990000000000236e+00 1.280189999999999984e+01 2.496140000000000114e+01 1.518120000000000047e+01 3.805959999999999788e+00 1.186180000000000057e+01 1.466980000000000040e+01 4.825079999999999814e+00 2.400750000000000028e+01 1.452120000000000033e+01 1.306279999999999930e+01 1.108169999999999966e+01 1.463260000000000005e+01 1.242559999999999931e+01 2.466750000000000043e+01 6.152929999999999566e+00 4.728899999999999770e-01 1.929170000000000051e+00 6.180530000000000079e+00 6.482999999999999874e-02 1.472499999999999964e+01 6.298199999999999577e+00 9.019019999999999371e+00 2.610300000000000065e+00 5.921960000000000335e+00 8.235419999999999519e+00 1.550949999999999918e+01 1.455589999999999939e+01 1.699279999999999902e+01 2.916100000000000136e+00 1.485539999999999949e+01 1.686670000000000158e+01 1.544379999999999953e+01 1.451469999999999949e+01 8.934369999999999479e+00 2.634840000000000071e+00 1.497150000000000070e+01 8.024850000000000705e+00 1.512219999999999942e+01 6.414719999999999978e+00 8.618479999999999919e+00 1.167430000000000057e+01 6.641930000000000334e+00 9.130440000000000111e+00 2.394819999999999993e+01 6.036780000000000257e+00 1.676190000000000069e+01 1.134769999999999968e+01 6.000379999999999825e+00 3.598199999999999732e-01 2.350150000000000006e+01 1.444439999999999991e+01 8.501590000000000202e+00 1.131409999999999982e+01 1.491520000000000046e+01 8.652850000000000819e+00 2.387879999999999825e+01 1.524099999999999966e+01 1.737730000000000175e+01 1.090320000000000000e+01 1.490000000000000036e+01 1.734469999999999956e+01 2.348450000000000060e+01 7.077370000000000161e+00 4.609280000000000044e+00 4.104569999999999830e+00 6.584329999999999572e+00 4.085230000000000139e+00 1.665690000000000026e+01 7.271480000000000388e+00 1.323290000000000077e+01 4.044240000000000279e+00 6.779130000000000322e+00 1.328279999999999994e+01 1.611939999999999884e+01 1.559469999999999956e+01 4.421470000000000233e+00 3.387230000000000185e+00 1.569400000000000084e+01 3.894179999999999975e+00 1.654860000000000042e+01 1.593599999999999994e+01 1.344790000000000063e+01 3.789070000000000160e+00 1.534370000000000012e+01 1.303679999999999950e+01 1.630750000000000099e+01 6.876290000000000013e+00 9.544380000000000308e+00 6.114460000000000228e+00 7.318859999999999921e+00 8.641930000000000334e+00 2.023890000000000100e+01 6.998940000000000161e+00 7.093000000000000693e-02 7.019140000000000157e+00 7.090950000000000308e+00 4.047999999999999932e-01 1.952039999999999864e+01 1.595079999999999920e+01 8.565540000000000376e+00 7.517470000000000319e+00 1.567989999999999995e+01 8.495300000000000296e+00 1.996130000000000138e+01 1.571959999999999980e+01 1.713840000000000074e+01 6.924629999999999619e+00 1.564339999999999975e+01 1.658439999999999870e+01 1.998679999999999879e+01 6.835919999999999774e+00 4.070590000000000153e+00 7.643150000000000333e+00 7.165140000000000065e+00 4.524890000000000079e+00 2.014120000000000132e+01 7.098239999999999661e+00 1.294870000000000054e+01 7.440330000000000332e+00 7.150039999999999729e+00 1.307199999999999918e+01 2.018530000000000157e+01 1.560440000000000005e+01 3.895480000000000054e+00 7.532379999999999853e+00 1.551789999999999914e+01 4.408990000000000187e+00 2.003790000000000049e+01 1.577229999999999954e+01 1.293730000000000047e+01 7.230209999999999582e+00 1.521729999999999983e+01 1.295369999999999955e+01 2.086649999999999849e+01 9.364110000000000156e+00 2.216579999999999995e+00 5.289860000000000007e+00 9.183699999999999974e+00 1.183329999999999993e+00 1.714010000000000034e+01 9.896670000000000300e+00 9.951480000000000103e+00 5.652040000000000397e+00 8.359819999999999141e+00 1.034619999999999962e+01 1.807110000000000127e+01 6.389999999999999847e-03 1.655540000000000012e+00 4.890010000000000190e+00 1.684750000000000014e+01 1.664460000000000051e+00 1.795649999999999835e+01 1.708960000000000079e+01 1.048509999999999920e+01 5.297690000000000232e+00 1.735140000000000171e+01 1.025629999999999953e+01 1.768809999999999860e+01 8.638249999999999318e+00 5.855459999999999887e+00 1.034120000000000061e+01 8.665459999999999496e+00 6.335539999999999949e+00 2.277929999999999922e+01 8.621589999999999421e+00 1.492670000000000030e+01 9.759750000000000369e+00 8.266040000000000276e+00 1.483220000000000027e+01 2.287109999999999843e+01 1.731409999999999982e+01 5.828059999999999796e+00 1.016119999999999912e+01 1.720680000000000121e+01 6.010760000000000325e+00 2.284069999999999823e+01 5.378899999999999793e-01 1.448789999999999978e+01 9.671939999999999316e+00 1.862900000000000111e-01 1.479579999999999984e+01 2.247599999999999909e+01