-1.939230000000000120e-01 1.673139999999999905e-01 -3.045869999999999966e-01 -4.083930000000000060e-01 1.883200000000000152e-02 3.838300000000000045e-02 -9.099690000000000278e-01 -6.136070000000000135e-01 1.102287000000000017e+00 5.417739999999999778e-01 1.386930000000000107e-01 -2.288489999999999969e-01 -9.491730000000000445e-01 9.450269999999999504e-01 -7.253900000000000625e-02 7.474610000000000420e-01 -4.225000000000000283e-02 4.045520000000000227e-01 1.328779999999999961e-01 8.261049999999999782e-01 -1.087952999999999948e+00 5.415299999999999558e-01 5.611319999999999641e-01 -2.519669999999999965e-01 4.752300000000000274e-02 1.470970000000000055e-01 8.808499999999999663e-02 1.261570999999999998e+00 -2.868809999999999971e-01 1.811339999999999895e-01 -4.680399999999999838e-02 -3.241900000000000337e-02 -4.131839999999999957e-01 -3.308429999999999982e-01 -7.066649999999999876e-01 -2.950829999999999842e-01 -6.155000000000000054e-02 4.083649999999999780e-01 -2.440559999999999952e-01 7.993100000000000205e-02 5.665639999999999565e-01 -1.810640000000000027e-01 3.830999999999999961e-01 1.282059999999999866e-01 -6.505800000000000471e-02 -1.513690000000000035e-01 -1.413119999999999932e+00 1.017030000000000017e-01 2.279650999999999872e+00 -2.573999999999999899e-02 1.331893999999999911e+00 1.937699999999999978e-01 -3.061380000000000212e-01 2.123059999999999947e-01 -4.762129999999999974e-01 8.740350000000000064e-01 -3.838239999999999985e-01 -7.277749999999999497e-01 -9.581819999999999782e-01 6.320099999999999607e-01 1.160606999999999944e+00 2.946579999999999755e-01 3.528600000000000070e-01 1.996159999999999879e-01 5.851699999999999957e-02 3.496000000000000218e-01 4.772099999999999953e-02 2.957650000000000001e-01 -1.079300000000000051e-02 1.159280000000000033e-01 -1.426560000000000050e-01 -1.803480000000000083e-01 5.384149999999999769e-01 3.623959999999999959e-01 1.054599999999999982e-02 -3.768389999999999795e-01 -1.408030000000000115e-01 2.141710000000000003e-01 2.880999999999999880e-03 -6.811000000000000387e-02 1.004059999999999953e-01 -1.312397999999999954e+00 -4.698700000000000099e-01 3.777249999999999774e-01 5.790410000000000279e-01 -1.579550000000000121e-01 1.308169999999999888e-01 1.144199999999999939e-01 3.446799999999999864e-01 -1.624690000000000023e-01 1.992680000000000007e-01 -4.605069999999999997e-01 -5.071670000000000345e-01 -4.591319999999999846e-01 -2.687419999999999809e-01 3.742389999999999883e-01 -1.181979999999999975e-01 2.889490000000000114e-01 5.023670000000000080e-01 4.699429999999999996e-01 -4.458250000000000268e-01 -2.654380000000000073e-01 -1.416028999999999982e+00 6.565509999999999957e-01 9.084940000000000238e-01 1.707369999999999999e-01 4.062040000000000095e-01 -4.428110000000000102e-01 4.553999999999999888e-03 -9.454100000000000004e-02 3.780939999999999857e-01 -6.385399999999999965e-01 -9.368300000000000238e-02 -2.104910000000000114e-01 -3.627340000000000009e-01 3.390499999999999764e-02 3.006409999999999916e-01 3.358059999999999934e-01 -1.130069999999999963e-01 -6.026600000000000013e-02 -6.639699999999999769e-02 9.289899999999999547e-02 -5.866409999999999680e-01 -1.104254999999999987e+00 -9.708600000000000563e-02 3.572699999999999765e-01 -4.485680000000000223e-01 -1.034059999999999979e-01 -4.935660000000000047e-01 4.476399999999999824e-02 -2.952359999999999984e-01 -3.587190000000000101e-01 5.951200000000000240e-02 -3.119640000000000191e-01 1.844560000000000088e-01 -1.533360000000000001e-01 3.511420000000000097e-01 6.201959999999999695e-01 -2.882819999999999827e-01 2.577019999999999866e-01 -1.075979999999999992e-01 8.090889999999999471e-01 3.470800000000000274e-02 2.201299999999999923e-01 -8.317809999999999926e-01 -5.499979999999999869e-01 3.268380000000000174e-01 2.583019999999999761e-01 6.395039999999999614e-01 4.493079999999999852e-01 -7.527190000000000270e-01 -8.702000000000000013e-02 3.525940000000000185e-01 -3.969320000000000070e-01 -1.247405000000000097e+00 5.552049999999999486e-01 5.450909999999999922e-01 -1.664889999999999981e-01 -2.425700000000000078e-02 4.295289999999999941e-01 -2.555379999999999874e-01 1.570179999999999909e-01 1.967150000000000010e-01 -5.834529999999999994e-01 -4.652400000000000285e-02 -7.395469999999999544e-01 4.020819999999999950e-01 -5.703890000000000349e-01 -1.284849999999999881e-01 2.469550000000000078e-01 -7.396800000000000597e-02 -3.888170000000000237e-01 3.722840000000000038e-01 -1.355800000000000061e-02 -2.159600000000000131e-01 -3.359779999999999989e-01 -4.061000000000000026e-02 3.210199999999999859e-02 1.457809999999999939e-01 -1.300530000000000019e-01 -3.291799999999999726e-01 -2.119034999999999780e+00 8.461090000000000000e-01 1.409599999999999916e-02 -4.309500000000000136e-02 -2.111999999999999988e-02 6.755400000000000293e-01 4.002519999999999967e-01 -4.962090000000000112e-01 -1.521000000000000000e-03 -2.358100000000000127e-02 -2.796190000000000064e-01 -9.988400000000000056e-02 -2.502400000000000180e-01 -1.348159999999999914e-01 1.357707999999999915e+00 -1.162800999999999974e+00 -8.697259999999999991e-01 -9.349399999999999378e-02 -2.484069999999999889e-01 -2.344459999999999877e-01 1.171869999999999995e-01 -1.637669999999999959e-01 1.651380000000000070e-01 1.049960000000000060e-01 3.903659999999999908e-01 8.645100000000000007e-02 -6.353820000000000023e-01 2.162119999999999875e-01 -3.791930000000000023e-01 4.383800000000000197e-02 1.325810000000000044e-01 3.492009999999999836e-01 1.053010000000000057e-01 1.047400000000000067e-02 2.071379999999999888e-01 -8.032740000000000435e-01 -4.067300000000000082e-02 -1.041050000000000031e-01 -2.341209999999999958e-01 2.685589999999999922e-01 -7.484570000000000389e-01 -6.695140000000000535e-01 1.013306999999999958e+00 3.012529999999999930e-01 9.094599999999999906e-02 -3.583359999999999879e-01 6.302399999999999669e-02 1.575199999999999864e-02 8.547719999999999763e-01 1.334899999999999975e-02 3.277189999999999825e-01 5.374000000000000304e-03 -1.957540000000000113e-01 -1.346890000000000032e-01 1.050289999999999974e-01 4.067500000000000282e-02 1.311855999999999911e+00 7.506400000000000572e-02 -1.180214000000000096e+00 -2.931399999999999978e-02 1.775735999999999981e+00 -2.787519999999999998e-01 -9.142120000000000246e-01 1.002460000000000018e-01 -5.634029999999999871e-01 -1.526505000000000001e+00 1.363288999999999973e+00 -1.037971999999999895e+00 1.400730000000000031e-01 4.247599999999999987e-02 7.159410000000000496e-01 -4.155030000000000112e-01 1.533760000000000123e-01 -6.790119999999999489e-01 4.467110000000000247e-01 -3.131160000000000054e-01 -7.066000000000000059e-02 -4.549579999999999735e-01 -1.237000000000000044e-01 1.190470000000000000e-01 1.895739999999999925e-01 -4.915200000000000125e-02 -4.991789999999999838e-01 -2.853209999999999913e-01 -7.432000000000000238e-03 -1.927800000000000069e-01 -7.298050000000000370e-01 -3.179739999999999789e-01 2.366640000000000132e-01 2.913100000000000134e-01 1.495029999999999970e-01 2.399599999999999997e-02 2.096860000000000113e-01 6.217500000000000249e-01 6.621380000000000043e-01 2.776890000000000192e-01 5.636480000000000379e-01 6.092859999999999943e-01 -4.132919999999999927e-01 7.293079999999999563e-01 6.470249999999999613e-01 -3.308510000000000062e-01 3.674399999999999888e-01 2.369999999999999874e-04 -1.314120000000000010e-01 3.797699999999999687e-02 6.825179999999999580e-01 -4.288919999999999955e-01 -4.380899999999999794e-01 -6.622999999999999721e-02 -8.439599999999999880e-02 6.154929999999999568e-01 1.243289999999999951e-01 4.923910000000000231e-01 -4.427400000000000224e-01 5.936150000000000038e-01 -2.352360000000000007e-01 4.572300000000000253e-01 -1.592089999999999894e-01 -1.436099999999999877e-01 -2.493720000000000103e-01 -3.533499999999999974e-01 -8.972400000000000375e-01 -2.380929999999999991e-01 -4.273950000000000249e-01 7.770599999999999730e-01 -1.501776999999999918e+00 8.149750000000000050e-01 2.005869999999999875e-01 8.915689999999999449e-01 -2.663090000000000179e-01 4.889830000000000010e-01 3.209739999999999815e-01 4.087959999999999927e-01 3.044020000000000059e-01 -1.354392999999999958e+00 9.819080000000000030e-01 -8.207399999999999418e-02 -4.221659999999999857e-01 -3.824609999999999954e-01 2.004759999999999875e-01 2.193000000000000158e-02 -3.948700000000000127e-02 -3.873880000000000101e-01 5.080620000000000136e-01 3.134970000000000256e-01 -2.971539999999999737e-01 2.791099999999999831e-02 3.808340000000000058e-01 -9.387229999999999741e-01 -9.543810000000000349e-01 -4.654869999999999841e-01 -4.543550000000000089e-01 1.346779999999999922e-01 3.694900000000000267e-02 -1.226000000000000093e-03 1.368489999999999984e-01 1.089740000000000014e-01 2.955229999999999801e-01 -1.796679999999999944e-01 3.930379999999999985e-01 3.681949999999999945e-01 4.489679999999999782e-01 3.559510000000000174e-01 3.155990000000000184e-01 -4.425899999999999973e-02 6.554550000000000098e-01 2.481230000000000102e-01 6.064190000000000413e-01 4.566230000000000011e-01 -2.336689999999999878e-01 8.422399999999999332e-02 -2.272170000000000023e-01 -3.550809999999999800e-01 -2.415019999999999945e-01 -2.076820000000000055e-01 -1.514439999999999953e-01 -1.320909999999999862e-01 2.792850000000000055e-01 -5.568399999999999739e-02 1.386940000000000117e-01 4.644499999999999740e-01 3.189350000000000240e-01 -3.695539999999999936e-01 -1.676549999999999985e-01 -5.467760000000000398e-01 1.721600000000000075e-01 2.679099999999999815e-01 -2.319960000000000078e-01 -1.186119999999999952e-01 -2.245510000000000006e-01 2.892359999999999931e-01 -2.607999999999999902e-02 -1.635939999999999894e-01 3.558780000000000276e-01 -9.566970000000000196e-01 -1.768172000000000077e+00 5.936620000000000230e-01 7.154599999999999849e-02 -1.651859999999999995e-01 5.200099999999999861e-02 1.041595999999999966e+00 -3.905239999999999823e-01 5.984169999999999767e-01 -3.806329999999999991e-01 -5.323900000000000160e-02 -2.942440000000000055e-01 1.018830000000000013e-01 8.981029999999999847e-01 1.676890000000000047e-01 1.193889999999999951e-01 -1.160560000000000064e-01 -4.156429999999999847e-01 -8.878400000000000181e-02 2.551930000000000032e-01 -3.820680000000000187e-01 6.449000000000000288e-01 3.237070000000000225e-01 -5.546990000000000531e-01 1.039780000000000010e-01 -4.095210000000000239e-01 1.991279999999999994e-01 9.148460000000000480e-01 -3.448800000000000199e-01 7.434999999999999769e-03 -2.983180000000000276e-01 -1.040959999999999941e-01 9.633019999999999916e-01 8.216099999999999792e-02 8.052709999999999591e-01 -5.077350000000000474e-01 -6.844869999999999566e-01 4.029309999999999836e-01 -1.144099999999999978e-01 -9.045999999999999874e-02 9.532999999999999807e-02 1.988179999999999947e-01 1.916329999999999978e-01 6.831690000000000262e-01 -4.347999999999999782e-02 -4.684389999999999943e-01 2.296529999999999960e-01 -3.876870000000000038e-01 2.032160000000000077e-01 -7.408099999999999408e-02 -2.478849999999999942e-01 -1.966449999999999865e-01 -1.240740000000000037e-01 -2.933600000000000096e-02 4.849589999999999734e-01 -6.980760000000000298e-01 4.425339999999999829e-01 -2.801290000000000169e-01 4.064500000000000057e-02 -1.094490000000000046e-01 6.263020000000000254e-01 -8.843410000000000437e-01 -6.303860000000000019e-01 8.921719999999999651e-01 -7.093589999999999618e-01 6.256000000000000276e-03 3.854440000000000088e-01 1.229340000000000016e-01 -8.825299999999999812e-02 -4.962880000000000069e-01 4.164919999999999733e-01 -6.416700000000000181e-02 -1.565719999999999890e-01 5.416879999999999473e-01 -3.125970000000000137e-01 6.683999999999999664e-02 -3.451080000000000259e-01 9.928700000000000303e-01 -2.210110000000000130e-01 5.347119999999999651e-01 6.618020000000000014e-01 -2.648860000000000103e-01 -3.088210000000000122e-01 -6.167030000000000012e-01 -2.704420000000000157e-01 4.012839999999999741e-01 -3.421919999999999962e-01 -4.331220000000000070e-01 4.435169999999999946e-01 -1.015960999999999892e+00 1.128190000000000026e-01 1.015741999999999923e+00 5.204159999999999897e-01 8.545099999999999918e-02 5.917200000000000237e-02 -8.228079999999999838e-01 1.234317000000000109e+00 -5.065800000000000164e-02 1.056300000000000017e-01 -7.720599999999999685e-02 -1.018150000000000027e-01 7.864000000000000157e-02 -2.649110000000000076e-01 -1.417390000000000039e-01 -2.096889999999999865e-01 1.784130999999999911e+00 -1.977309999999999901e-01 -8.362899999999999501e-02 -5.547269999999999701e-01 -1.196145999999999932e+00 2.431668999999999858e+00 1.772653000000000034e+00 -2.081790000000000029e-01 -3.234827000000000119e+00 -1.662338000000000093e+00 -7.726210000000000022e-01 2.063476999999999784e+00 -9.545630000000000503e-01 2.241710000000000091e-01 -4.652910000000000101e-01 -8.084999999999999964e-01 1.109825999999999979e+00 2.777375000000000149e+00 1.062343999999999955e+00 -2.768482999999999805e+00 8.634209999999999940e-01 8.094019999999999548e-01 1.029714999999999936e+00 2.597175000000000011e+00 -5.358899999999999775e-02 8.781970000000000054e-01 9.649849999999999817e-01 6.449460000000000193e-01 1.806899999999999895e-01 5.125769999999999493e-01 -1.188576999999999995e+00 -7.370130000000000292e-01 6.758030000000000426e-01 -9.423169999999999602e-01 -3.358642000000000127e+00 -6.604170000000000318e-01 2.031451999999999813e+00 3.454189999999999761e-01 -1.816675999999999958e+00 -2.788919999999999733e-01 1.271680000000000033e-01 2.025969999999999993e-01 4.171389999999999820e-01 1.982777000000000012e+00 -9.245349999999999957e-01 4.850200000000000067e-01 2.056147999999999865e+00 -7.258510000000000240e-01 1.401272000000000073e+00 -4.577370000000000050e-01 2.252254999999999896e+00 -4.028799999999999742e-02 8.338099999999999679e-02 6.260010000000000296e-01 -3.826760000000000161e-01 -4.793600000000000083e-01 -2.238840999999999859e+00 3.334529999999999994e-01 1.110430999999999946e+00 -1.966491999999999907e+00 -5.536710000000000242e-01 -2.818853999999999971e+00 -2.123790000000000122e-01 -1.709945999999999966e+00 -1.325530000000000097e+00 2.836224000000000078e+00 -3.642929999999999779e+00 3.730269999999999975e-01 1.134128000000000025e+00 -3.247709999999999764e-01 -1.950247999999999982e+00 -2.754150000000000209e-01 -1.228930000000000078e+00 -4.819430000000000103e-01 -3.704799999999999760e-02 1.874006000000000061e+00 7.915349999999999886e-01 8.378989999999999494e-01 -5.106089999999999796e-01 -7.163490000000000135e-01 1.228048999999999946e+00 -1.201759000000000022e+00 -1.313445999999999891e+00 -2.957170000000000076e-01 2.374868999999999897e+00 -7.119689999999999630e-01 2.798346000000000000e+00 -1.799757000000000051e+00 -7.668840000000000101e-01 5.998510000000000231e-01 -1.647200000000000053e-01 1.518022999999999900e+00 -1.103723000000000010e+00 -9.076300000000000479e-01 -1.317730000000000012e-01 -1.561442999999999914e+00 3.063509999999999844e-01 3.145330000000000070e-01 1.007471000000000005e+00 -1.714841000000000060e+00 -1.411462999999999912e+00 -1.178833999999999937e+00 -1.366430000000000033e+00 2.426886999999999794e+00 6.568400000000000627e-02 -1.046130000000000004e+00 -2.857169999999999987e-01 3.261394000000000126e+00 -5.868719999999999493e-01 2.234989999999999810e+00 1.672662000000000093e+00 -8.432340000000000391e-01 9.186539999999999706e-01 1.667651999999999912e+00 1.950706000000000051e+00 -1.265951000000000048e+00 -9.527799999999999603e-01 1.152409000000000017e+00 8.231450000000000156e-01 3.861310000000000020e-01 5.360080000000000400e-01 -1.591645999999999894e+00 -1.581822999999999979e+00 -2.798470000000000013e+00 1.360827000000000009e+00 2.926938999999999957e+00 4.783910000000000107e-01 -6.363510000000000000e-01 7.199899999999999356e-02 6.573010000000000241e-01 -1.121367999999999920e+00 4.109039999999999915e-01 5.817419999999999813e-01 -1.073590999999999962e+00 8.395439999999999570e-01 1.039360000000000006e-01 4.173979999999999912e-01 2.958759999999999835e+00 3.728259999999999907e-01 2.145589999999999997e-01 -3.273059999999999858e-01 -1.098775999999999975e+00 5.624839999999999840e-01 9.925530000000000186e-01 8.673739999999999783e-01 -8.092080000000000384e-01 2.476959999999999995e-01 -1.310618000000000061e+00 1.461170000000000080e+00 -5.256380000000000496e-01 -1.275209999999999955e-01 8.559149999999999814e-01 8.467099999999999627e-02 -7.135120000000000351e-01 4.367929999999999868e-01 8.149960000000000537e-01 9.000599999999999712e-01 -1.730450000000000044e-01 -1.305530000000000024e-01 7.513330000000000286e-01 1.118597999999999981e+00 8.992989999999999595e-01 4.088189999999999880e-01 -3.770259999999999723e-01 1.198769999999999974e-01 1.327828999999999926e+00 -9.768790000000000529e-01 -1.893850000000000033e+00 1.926569999999999949e-01 -1.285339000000000009e+00 1.394095000000000084e+00 3.615780000000000105e-01 7.244699999999999751e-02 5.537830000000000252e-01 -6.457310000000000549e-01 5.578440000000000065e-01 1.578135999999999983e+00 -7.278799999999999715e-01 8.442950000000000177e-01 -5.216250000000000053e-01 -6.439629999999999521e-01 -2.442949000000000037e+00 -1.120827000000000018e+00 -1.357976999999999990e+00 6.401540000000000008e-01 -8.768380000000000063e-01 -4.997929999999999873e-01 1.013384999999999980e+00 -2.340000000000000135e-01 -4.415529999999999733e-01 6.581430000000000335e-01 -6.682820000000000427e-01 -1.427559999999999940e-01 -9.308500000000000107e-02 5.586179999999999479e-01 1.005098000000000047e+00 1.404430000000000123e-01 5.957480000000000553e-01 -1.508210000000000051e+00 -1.182164999999999910e+00 1.259349999999999969e+00 5.113330000000000375e-01 -2.525100000000000122e-01 8.334400000000000142e-02 6.325579999999999536e-01 1.678682999999999925e+00 -6.897900000000000142e-01 3.125310000000000032e-01 -9.966319999999999624e-01 2.211650000000000005e-01 9.486590000000000300e-01 -6.236620000000000497e-01 -1.247406000000000015e+00 2.994423999999999975e+00 -3.004470000000000196e-01 1.043193000000000037e+00 1.815409999999999968e+00 -1.291680000000000050e-01 -2.438599999999999934e-01 -6.948300000000000309e-02 -1.233311999999999964e+00 -6.404999999999999583e-02 5.735069999999999890e-01 -9.504999999999999560e-02 -3.355719999999999814e-01 6.895350000000000090e-01 -5.119000000000000217e-01 2.773070000000000257e-01 1.227229999999999988e-01 -4.253390000000000226e-01 -1.282409999999999939e-01 9.546729999999999938e-01 2.017142999999999908e+00 -5.494710000000000427e-01 4.534509999999999930e-01 7.837290000000000090e-01 6.986369999999999525e-01 -6.311520000000000463e-01 4.806030000000000024e-01 1.302760000000000029e-01 4.291699999999999959e-01 5.862129999999999841e-01 -7.866499999999999881e-02 1.800500000000000017e-02 3.559399999999999786e-01 -7.985740000000000061e-01 2.798899999999999999e-02 -8.263890000000000402e-01 -2.039816000000000074e+00 8.814819999999999878e-01 -7.812360000000000415e-01 -1.311665000000000081e+00 -1.251892999999999923e+00 -1.013903999999999916e+00 1.361267000000000005e+00 -5.179730000000000167e-01 9.243460000000000010e-01 -1.656268000000000074e+00 6.168190000000000062e-01 -1.410538000000000070e+00 -2.032064999999999788e+00 -5.693289999999999740e-01 3.094700000000000228e-01 -1.152214999999999989e+00 1.697351000000000054e+00 -1.644530000000000047e+00 1.457940000000000069e-01 5.931549999999999878e-01 -3.112110000000000154e-01 -1.627680999999999933e+00 -5.190810000000000146e-01 -7.774370000000000447e-01 5.232689999999999841e-01 6.943099999999999827e-01 4.440749999999999975e-01 1.869140000000000024e+00 -7.192300000000000082e-02 1.069882999999999917e+00 -8.245749999999999469e-01 3.209700000000000053e-02 1.295199999999999997e-02 -2.088496000000000130e+00 -3.569749999999999868e-01 -2.756319999999999881e-01 1.480005000000000015e+00 -5.028610000000000024e-01 2.829960000000000253e-01 5.553749999999999520e-01 5.058500000000000218e-01 1.945699999999999860e-02 -6.478270000000000417e-01 1.313711999999999991e+00 1.221826000000000079e+00 -8.387679999999999580e-01 -9.290800000000000447e-02 2.464349999999999874e-01 -7.722719999999999585e-01 -9.873330000000000162e-01 1.614130000000000009e-01 -1.319153999999999938e+00 -1.189375999999999989e+00 -8.199210000000000109e-01 -1.420811000000000046e+00 -1.011930000000000052e-01 1.004826999999999915e+00 8.566700000000000426e-01 4.768910000000000093e-01 9.842099999999999460e-02 1.315563000000000038e+00 1.487711000000000006e+00 -1.839647999999999950e+00 5.899119999999999919e-01 5.117540000000000422e-01 -7.350020000000000442e-01 -5.822800000000000198e-01 1.350949999999999929e-01 -4.059869999999999868e-01 -2.412468000000000057e+00 4.997019999999999795e-01 9.736860000000000515e-01 9.317870000000000319e-01 -3.908739999999999992e-01 -4.094200000000000061e-01 -2.067309999999999981e+00 -7.417310000000000292e-01 7.970089999999999675e-01 5.257669999999999844e-01 -3.456239999999999868e-01 -1.441076000000000024e+00 1.133555000000000090e+00 -8.129020000000000135e-01 9.249000000000000277e-03 -5.448030000000000372e-01 1.144057000000000102e+00 4.380109999999999837e-01 6.944970000000000310e-01 1.253489000000000075e+00 -3.106860000000000177e-01 7.283560000000000034e-01 1.990059999999999885e-01 1.700685999999999920e+00 5.059019999999999628e-01 -3.754990000000000272e-01 -5.258140000000000036e-01 6.916879999999999695e-01 -6.341010000000000257e-01 1.391519999999999979e-01 7.214369999999999949e-01 -1.722829999999999917e-01 1.242796000000000012e+00 -1.690460999999999991e+00 -8.395820000000000505e-01 -4.551609999999999823e-01 -7.050880000000000480e-01 -7.905199999999999727e-02 1.108500999999999959e+00 7.567120000000000513e-01 8.517339999999999911e-01 2.524120000000000252e-01 2.677390000000000048e-01 -6.749990000000000157e-01 1.081808000000000103e+00 -3.958599999999999897e-01 -2.154189999999999994e-01 9.380399999999999849e-01 -4.451760000000000161e-01 2.542530000000000068e-01 -2.752049999999999774e-01 1.160349999999999993e+00 -3.098569999999999935e-01 -2.087700000000000111e-01 -3.365854000000000124e+00 1.319874999999999909e+00 -2.663781999999999872e+00 -1.316690000000000083e-01 -5.223630000000000217e-01 1.528953000000000007e+00 -6.116580000000000350e-01 -6.817379999999999551e-01 -8.488139999999999574e-01 4.361349999999999949e-01 -4.158149999999999902e-01 -4.783299999999999774e-01 -6.468639999999999946e-01 -5.494459999999999900e-01 1.412420000000000009e+00 9.073430000000000106e-01 -8.302610000000000268e-01 2.932409999999999739e-01 3.412540000000000018e-01 -3.069430000000000214e-01 4.536439999999999917e-01 -2.829900000000000124e-02 4.376669999999999727e-01 -3.033350000000000213e-01 -7.150030000000000552e-01 2.505220000000000224e-01 -6.611540000000000195e-01 2.014479999999999882e-01 1.172400000000000109e+00 2.146770000000000067e-01 4.059159999999999990e-01 2.146150000000000002e-01 -4.330120000000000080e-01 9.022329999999999517e-01 -4.691000000000000031e-02 -5.434729999999999839e-01 2.935000000000000109e-03 1.746494999999999909e+00 2.216120000000000034e-01 1.784200000000000022e-02 9.782610000000000472e-01 -7.520649999999999835e-01 -4.841929999999999845e-01 9.326569999999999583e-01 -2.333000000000000074e-01 -4.126200000000000007e-02 5.705259999999999776e-01 -1.257713999999999999e+00 1.540575000000000028e+00 1.101941999999999977e+00 -1.690846000000000071e+00 7.437139999999999862e-01 -4.086460000000000092e-01 7.980570000000000164e-01 4.112469999999999737e-01 -1.361056000000000044e+00 2.795830000000000259e-01 1.762880000000000003e-01 -1.178922000000000025e+00 2.644779999999999909e-01 -3.409420000000000228e-01 -4.099000000000000213e-03 -7.397319999999999451e-01 7.307529999999999859e-01 1.055058000000000051e+00 -2.494260000000000088e-01 -1.191222000000000003e+00 -1.479761000000000104e+00 -1.071684000000000081e+00 2.958660000000000179e-01 -4.622699999999999726e-02 -3.515570000000000084e-01 -1.114649000000000001e+00 5.228679999999999994e-01 -2.581309999999999993e-01 -1.781868000000000007e+00 1.999133000000000049e+00 3.118389999999999773e-01 1.381470999999999894e+00 -2.067380000000000051e-01 5.397809999999999553e-01 1.862379999999999869e-01 1.380813000000000068e+00 -7.792200000000000515e-02 2.064209999999999934e-01 -8.050009999999999666e-01 -6.414339999999999486e-01 -1.891400000000000026e-01 -1.008348000000000022e+00 -3.548109999999999875e-01 -1.791999999999999843e-02 5.635510000000000241e-01 5.403639999999999555e-01 -6.453599999999999615e-02 -1.774229999999999974e-01 -1.913410000000000111e-01 -3.054580000000000073e-01 2.337130000000000041e-01 1.233820000000000056e-01 -1.091450000000000031e+00 -2.075594000000000161e+00 -1.096570000000000045e-01 7.473290000000000211e-01 -5.472000000000000301e-03 -8.194820000000000437e-01 8.303920000000000190e-01 3.735120000000000107e-01 1.244844000000000062e+00 -8.751959999999999740e-01 6.145199999999999968e-02 2.506129999999999747e-01 -1.285295999999999994e+00 -1.244829999999999964e-01 -1.969149999999999956e+00 -1.135810000000000014e-01 -3.559999999999999797e-03 -6.257920000000000149e-01 1.389229999999999909e-01 -3.337330000000000019e-01 -1.872999999999999943e-01 -1.104810000000000070e+00 1.958500000000000171e-02 -1.006269999999999998e+00 -1.196919999999999984e+00 1.819903000000000048e+00 1.428226999999999913e+00 5.507739999999999858e-01 -1.113741000000000092e+00 -1.585461000000000009e+00 -1.343250000000000000e-01 -5.156420000000000448e-01 -1.601609999999999978e-01 -1.119019999999999904e+00 -2.367970000000000075e-01 1.626299999999999968e-02 3.980250000000000177e-01 -1.370521000000000100e+00 1.177764999999999951e+00 4.230180000000000051e-01 -1.987530000000000130e-01 7.607639999999999958e-01 -5.088430000000000453e-01 -7.510569999999999746e-01 1.953149000000000024e+00 9.079299999999999871e-02 6.529059999999999864e-01 -9.826519999999999699e-01 -2.226732000000000156e+00 -2.580319999999999836e-01 8.715340000000000309e-01 8.769510000000000360e-01 4.756639999999999757e-01 -8.884940000000000060e-01 -1.453820000000000112e-01 -1.588430999999999926e+00 -4.937899999999999928e-02 2.468560000000000088e+00 -5.831699999999999662e-01 -7.873250000000000526e-01 -5.985709999999999642e-01 3.922099999999999892e-02 9.316240000000000077e-01 2.084732999999999947e+00 2.432090000000000085e-01 -1.060934000000000044e+00 -1.291468999999999978e+00 -1.878200000000000008e-02 5.091199999999999892e-02 1.035760000000000014e-01 -7.094540000000000290e-01 -1.093109000000000108e+00 -1.890346000000000082e+00 2.054989999999999872e-01 -3.208949999999999858e-01 -1.302111999999999936e+00 -3.969010000000000038e-01 9.970369999999999511e-01 -2.199820000000000109e-01 5.691650000000000320e-01 -1.072179999999999939e-01 1.996360000000000079e-01 4.512809999999999877e-01 -1.020769999999999955e+00 2.535649999999999848e-01 8.812300000000000688e-02 1.566638999999999893e+00 -6.766450000000000520e-01 -2.826899999999999899e-02 -5.177389999999999493e-01 -8.530990000000000517e-01 -1.506386000000000003e+00 4.051699999999999746e-01 1.436765999999999988e+00 -5.669999999999999485e-01 -1.112589000000000050e+00 -1.052488000000000090e+00 -6.820199999999999596e-01 2.774730000000000252e-01 -2.277000000000000135e-01 7.419719999999999649e-01 -1.222649999999999987e-01 6.906430000000000069e-01 3.601650000000000129e-01 5.597259999999999458e-01 -9.568259999999999543e-01 -1.395593000000000083e+00 -8.262410000000000032e-01 1.722291000000000016e+00 3.772639999999999882e-01 -1.221860000000000029e-01 2.952690000000000037e-01 1.222639999999999977e-01 -2.439799999999999955e-02 2.189850000000000130e-01 1.707950000000000024e-01 4.949160000000000226e-01 6.397019999999999929e-01 8.019190000000000484e-01 -3.555429999999999979e-01 -9.607679999999999554e-01 4.078919999999999768e-01 6.431310000000000082e-01 6.491090000000000471e-01 -1.257967999999999975e+00 1.081119999999999998e-01 2.490638000000000130e+00 -4.150030000000000108e-01 1.823190000000000088e+00 8.075099999999999500e-01 7.714539999999999731e-01 -2.490981999999999807e+00 5.697069999999999634e-01 9.943060000000000231e-01 -3.465399999999999731e-02 2.165340000000000042e-01 -1.769689999999999985e+00 1.449916999999999900e+00 2.873999999999999888e-01 -7.421290000000000386e-01 1.553080000000000016e-01 -2.468513000000000179e+00 8.686549999999999550e-01 2.101878999999999831e+00 -2.452837000000000156e+00 1.535729999999999873e-01 2.482883999999999869e+00 1.127307000000000059e+00 -1.178743000000000096e+00 -7.525469999999999660e-01 -6.715759999999999508e-01 9.837000000000000258e-03 3.172429999999999972e-01 -1.087570000000000064e-01 7.414400000000000157e-02 9.477039999999999909e-01 6.617070000000000451e-01 1.098159999999999969e-01 -6.291320000000000245e-01 -2.028925000000000090e+00 3.571960000000000135e-01 1.997805999999999971e+00 8.457800000000000040e-02 3.055680000000000063e-01 5.913110000000000310e-01 1.211592000000000002e+00 -4.873879999999999879e-01 -5.944160000000000554e-01 -1.713449999999999973e-01 -9.720259999999999456e-01 4.753830000000000000e-01 -2.201668999999999876e+00 1.515214000000000061e+00 2.450219000000000147e+00 1.701657999999999893e+00 -1.370403999999999956e+00 3.833880000000000066e-01 4.639800000000000174e-02 -6.915090000000000403e-01 4.206550000000000011e-01 -1.847100000000000131e-01 -1.647730000000000028e-01 1.461036000000000001e+00 7.071269999999999500e-01 -8.583589999999999831e-01 4.953659999999999730e-01 6.856489999999999529e-01 -4.488579999999999792e-01 -1.030200000000000005e-01 -8.621029999999999527e-01 -2.916159999999999863e-01 1.323870000000000047e-01 3.482049999999999867e-01 5.698210000000000219e-01 -1.292391999999999985e+00 1.287344000000000044e+00 -1.050205999999999973e+00 -9.305309999999999970e-01 6.000969999999999915e-01 7.190739999999999910e-01 -1.307704999999999895e+00 1.632560000000000122e-01 -1.085069999999999979e+00 6.713600000000000123e-02 -1.958330000000000071e-01 -6.202530000000000543e-01 1.571770000000000111e-01 7.204429999999999445e-01 6.163450000000000317e-01 -3.334239999999999982e-01 3.182760000000000034e-01 6.437819999999999654e-01 -2.065424999999999844e+00 1.024680000000000035e-01 1.099841000000000069e+00 -1.303040999999999894e+00 1.185985000000000067e+00 1.952290000000000136e-01 -4.925910000000000011e-01 -3.183360000000000078e-01 -8.753220000000000445e-01 1.847100000000000131e-02 -6.403950000000000475e-01 9.244800000000000240e-02 -8.229309999999999681e-01 -4.89146999999