5.423850000000000060e-01 1.250600000000000045e-01 1.420800000000000014e-02 3.319070000000000076e-01 -4.328000000000000180e-01 1.547280000000000044e-01 2.598170000000000202e-01 -1.615949999999999886e-01 4.800429999999999975e-01 -3.534729999999999817e-01 7.350900000000000489e-02 2.189709999999999990e-01 -9.858699999999999408e-02 3.369389999999999885e-01 -2.820520000000000249e-01 5.486550000000000038e-01 -2.749849999999999794e-01 6.527709999999999901e-01 -2.637050000000000227e-01 2.408089999999999953e-01 4.296650000000000191e-01 3.514760000000000106e-01 1.211805000000000021e+00 2.552809999999999802e-01 -4.132950000000000235e-01 -1.854780000000000040e-01 3.682699999999999863e-02 -1.830459999999999865e-01 -5.988000000000000267e-02 -1.555759999999999921e-01 1.761479999999999990e-01 -7.792609999999999815e-01 -7.893320000000000336e-01 1.132039999999999991e-01 5.914799999999999919e-02 3.969999999999999918e-02 9.858099999999999641e-01 3.405560000000000254e-01 1.137699999999999996e-02 -5.126000000000000001e-02 5.279049999999999576e-01 9.211869999999999781e-01 7.771599999999999342e-02 -2.930479999999999752e-01 -1.913769999999999916e-01 -4.771380000000000066e-01 9.558630000000000182e-01 -6.450900000000000523e-01 -1.019250000000000017e-01 -2.267339999999999911e-01 1.346519999999999939e-01 -2.338480000000000003e-01 -1.453603999999999896e+00 4.893029999999999879e-01 2.446069999999999911e-01 -5.941849999999999632e-01 7.255570000000000075e-01 -4.457369999999999943e-01 1.744680000000000120e-01 3.536279999999999979e-01 6.630500000000000282e-02 3.646909999999999874e-01 -2.879869999999999930e-01 -6.902850000000000374e-01 -1.028469999999999940e-01 -1.336900000000000067e-02 -1.715049999999999908e-01 -3.105780000000000207e-01 -2.877859999999999863e-01 -1.400799999999999962e-02 -4.745150000000000201e-01 -7.889999999999999878e-04 -6.276249999999999885e-01 3.655809999999999893e-01 -4.599759999999999960e-01 -1.564289999999999958e+00 4.272710000000000119e-01 -5.325360000000000094e-01 3.990299999999999958e-01 1.430389999999999995e-01 2.799349999999999894e-01 -6.580559999999999743e-01 -2.330119999999999969e-01 1.519919999999999882e-01 -4.650969999999999827e-01 -2.355829999999999869e-01 7.587599999999999900e-02 -6.160050000000000248e-01 3.503200000000000064e-02 8.128399999999999515e-02 -1.340220000000000022e-01 -6.752409999999999801e-01 6.114499999999999796e-02 5.994300000000000322e-02 -7.625079999999999636e-01 -7.889999999999999791e-02 1.300590000000000079e-01 -4.310209999999999875e-01 5.647680000000000478e-01 -7.282410000000000272e-01 -3.404059999999999864e-01 -1.502410000000000134e-01 3.768000000000000082e-03 -3.984999999999999827e-03 -2.795239999999999947e-01 -4.369810000000000083e-01 -2.955199999999999841e-02 -2.369910000000000072e-01 -5.332699999999999940e-02 -4.729499999999999815e-01 -3.888229999999999742e-01 3.424470000000000014e-01 7.839999999999999747e-02 -1.951479999999999881e-01 -6.025200000000000000e-02 4.569449999999999901e-01 -1.986200000000000118e-02 -1.475450000000000095e-01 1.238220000000000015e-01 2.381010000000000071e-01 -2.998190000000000022e-01 -9.006779999999999786e-01 2.737499999999999933e-01 -1.001908999999999939e+00 -6.872369999999999868e-01 -2.002400000000000013e-01 2.884519999999999862e-01 -6.534659999999999913e-01 -1.145650000000000002e-01 -2.395600000000000160e-02 -2.585230000000000028e-01 1.813230000000000119e-01 9.611200000000000299e-02 3.405639999999999779e-01 -1.051260000000000083e+00 -3.191370000000000040e-01 -1.277600000000000124e-01 1.618060000000000054e-01 -1.822830000000000006e-01 -8.197670000000000234e-01 1.053130000000000038e-01 5.023600000000000287e-01 1.624259999999999871e-01 7.075770000000000115e-01 1.072167000000000092e+00 -4.973540000000000183e-01 -7.801050000000000484e-01 -1.213900000000000048e-02 5.540500000000000286e-02 -3.012920000000000043e-01 4.634429999999999938e-01 -2.358499999999999833e-02 -9.148290000000000033e-01 4.980959999999999832e-01 1.211929999999999952e-01 -5.510420000000000318e-01 -3.432899999999999840e-02 -1.793609999999999927e-01 -9.661999999999999755e-02 -8.157919999999999616e-01 -9.648269999999999902e-01 -1.102797000000000027e+00 9.391190000000000371e-01 5.624719999999999720e-01 3.148790000000000200e-01 1.221846999999999905e+00 -3.876660000000000106e-01 -2.708610000000000184e-01 1.001441000000000026e+00 6.415370000000000239e-01 8.314019999999999744e-01 1.469999999999999953e-02 -7.725700000000000622e-02 6.470029999999999948e-01 -7.385709999999999775e-01 2.722979999999999845e-01 -3.234790000000000165e-01 -1.731719999999999926e-01 -3.611489999999999978e-01 1.293829999999999980e-01 5.159970000000000390e-01 -7.904660000000000020e-01 -9.090099999999999569e-02 8.771539999999999893e-01 -6.018780000000000241e-01 1.419294000000000056e+00 4.347800000000000276e-02 2.944320000000000270e-01 4.632499999999999812e-02 -4.733099999999999807e-02 -1.417819999999999914e-01 1.302540000000000087e-01 3.689900000000000124e-02 7.137839999999999741e-01 -3.683899999999999952e-01 -8.071340000000000181e-01 1.135479999999999962e-01 -4.995419999999999860e-01 1.379799999999999915e-01 -9.815799999999999526e-02 -1.141719999999999957e-01 -1.329673000000000105e+00 -4.551999999999999623e-03 6.458679999999999977e-01 1.340399999999999925e-02 -1.013919999999999960e-01 6.923310000000000297e-01 4.290299999999999669e-02 1.731010000000000049e-01 1.762120000000000075e-01 -1.842530000000000001e-01 -2.422399999999999901e-02 6.864900000000000446e-01 -1.076470000000000066e-01 2.201430000000000053e-01 -2.336600000000000135e-02 2.954400000000000082e-02 -6.274899999999999922e-01 2.086969999999999936e-01 -1.552749999999999964e-01 4.450319999999999832e-01 -3.675109999999999766e-01 -1.103933000000000053e+00 1.527775000000000105e+00 -4.285570000000000213e-01 -9.096999999999999184e-03 -1.383070000000000133e-01 -5.660619999999999541e-01 1.270590000000000053e-01 8.251420000000000421e-01 6.634189999999999809e-01 6.540960000000000107e-01 -4.229080000000000061e-01 -3.150810000000000000e-01 -5.752930000000000543e-01 2.773959999999999759e-01 -8.134639999999999649e-01 4.577689999999999815e-01 1.055859999999999993e-01 4.227719999999999811e-01 3.275800000000000239e-02 -2.912060000000000204e-01 6.033070000000000377e-01 -7.551599999999999979e-02 -7.112290000000000001e-01 -5.039660000000000251e-01 -1.300679999999999892e-01 -1.591690000000000049e+00 -1.117370000000000030e-01 -5.565599999999999714e-02 -1.195330000000000004e-01 1.068120000000000042e-01 -4.374640000000000195e-01 3.611110000000000153e-01 -3.750829999999999997e-01 1.773460000000000036e-01 -9.734859999999999625e-01 -8.004040000000000044e-01 8.044200000000000239e-01 4.228379999999999916e-01 2.907600000000000184e-01 -1.151920000000000027e-01 7.066940000000000444e-01 1.509568999999999939e+00 1.635870000000000102e-01 2.292140000000000011e-01 -3.156140000000000057e-01 -5.976989999999999803e-01 -5.657800000000000329e-02 7.370109999999999717e-01 -1.560489999999999933e-01 -3.582560000000000189e-01 -8.386609999999999898e-01 -1.279840000000000089e+00 8.317080000000000028e-01 8.922390000000000043e-01 4.141329999999999734e-01 -2.666160000000000196e-01 2.318010000000000070e-01 -6.470609999999999973e-01 5.448200000000000265e-02 4.336070000000000202e-01 -6.898779999999999912e-01 3.154620000000000202e-01 8.607839999999999936e-01 4.716469999999999829e-01 2.333979999999999944e-01 1.057229999999999975e-01 2.601809999999999956e-01 4.323600000000000221e-01 2.764759999999999995e-01 7.837330000000000130e-01 3.835129999999999928e-01 3.769069999999999920e-01 1.242859999999999937e-01 -4.832529999999999881e-01 -2.519989999999999730e-01 -6.230780000000000207e-01 -3.450529999999999986e-01 6.999490000000000434e-01 2.575200000000000058e-02 6.781299999999999828e-02 -5.934749999999999748e-01 -8.584039999999999448e-01 4.103589999999999738e-01 -3.830839999999999801e-01 6.437700000000000367e-02 5.750119999999999676e-01 -1.738649999999999918e-01 -5.527339999999999476e-01 4.629929999999999879e-01 9.005799999999999916e-02 6.304199999999999804e-01 -9.989409999999999679e-01 2.042980000000000074e-01 2.562800000000000147e-02 -8.875199999999999756e-02 -2.493209999999999871e-01 -5.991720000000000379e-01 2.137209999999999943e-01 6.937100000000000211e-02 -1.064872999999999958e+00 4.517070000000000252e-01 -4.178169999999999940e-01 2.052889999999999993e-01 -1.053489999999999982e-01 -1.770619999999999972e-01 5.012529999999999486e-01 3.885859999999999870e-01 2.745770000000000155e-01 -3.520789999999999753e-01 -4.821619999999999795e-01 9.730199999999999960e-02 -9.585719999999999796e-01 1.509389999999999898e-01 -1.066575000000000051e+00 -4.581930000000000169e-01 -1.740680000000000005e-01 -1.224630000000000024e-01 -9.411429999999999518e-01 6.743470000000000297e-01 -7.728410000000000002e-01 3.106619999999999937e-01 -1.746614000000000111e+00 1.982714000000000087e+00 2.907190000000000052e-01 -2.419709999999999916e-01 -3.017310000000000270e-01 1.815130000000000077e-01 -2.070490000000000108e-01 -3.880419999999999980e-01 5.896090000000000497e-01 3.523999999999999789e-03 3.948539999999999828e-01 -1.014950999999999937e+00 -9.591900000000000426e-02 -1.165543999999999913e+00 4.275120000000000031e-01 -5.250900000000000012e-02 -4.031850000000000156e-01 -6.769439999999999902e-01 2.969029999999999725e-01 -6.752860000000000529e-01 4.146949999999999803e-01 3.905560000000000143e-01 -2.695799999999999863e-01 1.458969999999999989e-01 5.866080000000000183e-01 3.396970000000000267e-01 -4.857279999999999931e-01 -4.099200000000000066e-02 -6.625100000000000433e-01 1.479490999999999890e+00 -4.155999999999999972e-03 1.297697000000000100e+00 -3.120539999999999980e-01 -5.382609999999999895e-01 3.613350000000000173e-01 1.048567000000000027e+00 1.339100000000000013e-02 -1.502439999999999887e-01 1.586900000000000116e-02 3.246519999999999961e-01 -8.036480000000000290e-01 -3.010180000000000078e-01 1.029263999999999957e+00 -4.315640000000000032e-01 -1.253395999999999955e+00 -4.422110000000000207e-01 -1.731939999999999868e-01 -5.007359999999999589e-01 1.085037000000000029e+00 -3.719819999999999793e-01 -1.148509999999999948e-01 6.756299999999999806e-02 -3.167650000000000188e-01 1.554699999999999971e-01 1.477509999999999935e-01 -1.158060000000000062e-01 -9.966880000000000184e-01 -1.173804999999999987e+00 6.298740000000000450e-01 3.359059999999999824e-01 2.561550000000000216e-01 7.662989999999999524e-01 6.561999999999999778e-02 -3.635399999999999743e-02 2.646000000000000019e-01 9.578569999999999585e-01 7.665739999999999776e-01 -1.501240000000000074e-01 -2.954559999999999964e-01 7.722800000000000498e-02 -3.296299999999999925e-02 4.976999999999999758e-01 -8.984039999999999804e-01 8.508699999999999597e-02 2.868820000000000259e-01 -3.356999999999999984e-01 3.023830000000000129e-01 -2.731169999999999987e-01 8.969900000000000095e-02 -3.665349999999999997e-01 -6.987689999999999735e-01 3.270500000000000074e-01 4.031839999999999868e-01 7.338500000000000023e-01 3.092299999999999910e-02 2.337490000000000123e-01 -8.424369999999999914e-01 -1.893179999999999863e-01 -1.173831000000000069e+00 -2.434179999999999955e-01 1.324170999999999987e+00 5.787940000000000307e-01 6.221539999999999848e-01 -9.552700000000000080e-02 -4.480279999999999818e-01 5.172750000000000403e-01 -4.853020000000000111e-01 -3.480770000000000253e-01 7.452769999999999673e-01 -7.817200000000000537e-02 -4.001460000000000017e-01 6.057360000000000522e-01 -4.084990000000000010e-01 1.116576999999999931e+00 -6.152239999999999931e-01 2.155710000000000126e-01 -6.967900000000000205e-01 -2.901079999999999770e-01 2.224520000000000108e-01 -1.683949999999999891e-01 -1.167220000000000063e-01 1.198059999999999958e-01 6.247099999999999875e-02 -3.383499999999999702e-02 -3.210279999999999800e-01 -5.519199999999999801e-02 -4.357960000000000167e-01 4.637629999999999808e-01 -1.083829999999999932e-01 5.588459999999999539e-01 1.730589999999999906e-01 1.750300000000000120e-02 -2.131419999999999981e-01 -6.584240000000000093e-01 1.327430000000000110e+00 5.879820000000000046e-01 1.143526999999999960e+00 6.392980000000000329e-01 3.483390000000000097e-01 -1.092930000000000013e-01 -2.696760000000000268e-01 -2.330929999999999946e-01 -9.783999999999999295e-03 3.304099999999999815e-01 4.929859999999999798e-01 -2.553599999999999759e-01 -4.389219999999999788e-01 1.955759999999999998e-01 3.251490000000000213e-01 -6.454609999999999514e-01 1.693901000000000101e+00 -2.047937000000000118e+00 1.843263000000000096e+00 -1.190029999999999921e+00 -1.729840000000000044e+00 1.386187999999999976e+00 3.580079999999999929e-01 -9.319880000000000386e-01 1.539824999999999999e+00 1.622268000000000043e+00 -1.482318000000000024e+00 7.393560000000000132e-01 2.572575000000000056e+00 -8.428820000000000201e-01 -7.333690000000000486e-01 -1.198260000000000103e+00 1.526138999999999912e+00 -8.592680000000000318e-01 4.592310000000000003e-01 -7.880099999999999882e-01 1.046756999999999938e+00 -2.309000000000000163e+00 -1.721356000000000108e+00 -1.261492000000000058e+00 -1.314313000000000065e+00 -3.779279999999999862e-01 1.762474000000000096e+00 -2.335606999999999989e+00 4.520290000000000141e-01 2.392009999999999970e+00 -1.542409999999999892e-01 -6.333269999999999733e-01 1.259171000000000040e+00 7.549230000000000107e-01 -1.380546000000000051e+00 2.566678000000000015e+00 -1.792400000000000104e-01 1.496740000000000015e-01 1.061325000000000074e+00 -4.848740000000000272e-01 4.904569999999999763e-01 -1.249425000000000008e+00 1.867146999999999890e+00 -4.733979999999999855e-01 6.579639999999999933e-01 1.138379999999999947e+00 3.763777000000000150e+00 1.926625000000000032e+00 1.936212000000000044e+00 -8.248520000000000296e-01 -6.328289999999999749e-01 -2.080576000000000203e+00 1.983773000000000009e+00 5.981360000000000010e-01 -1.424800999999999984e+00 8.147959999999999647e-01 -1.765015000000000001e+00 -1.859167999999999932e+00 -1.023473000000000077e+00 -1.388549999999999951e+00 1.677520000000000122e-01 7.815579999999999750e-01 -1.369618000000000002e+00 -4.957019999999999760e-01 1.634351000000000109e+00 5.371780000000000443e-01 6.392050000000000232e-01 -8.833599999999999786e-02 1.182555000000000023e+00 1.412517000000000023e+00 -1.749529999999999974e-01 2.873759000000000174e+00 -1.225962999999999914e+00 -7.060710000000000042e-01 -1.742453000000000030e+00 7.616899999999999782e-01 -1.594943999999999917e+00 -2.528261999999999787e+00 2.196318999999999910e+00 7.323290000000000077e-01 1.576089999999999991e-01 -1.667095999999999911e+00 1.875818999999999903e+00 1.058783999999999947e+00 1.097619999999999985e-01 -2.524561999999999973e+00 -1.291809999999999903e+00 2.102927999999999908e+00 -1.384756000000000098e+00 2.337015000000000065e+00 -9.436899999999999455e-02 -8.515549999999999509e-01 -5.628509999999999902e-01 1.242169999999999941e-01 3.270357999999999876e+00 -1.431755000000000111e+00 2.139476999999999851e+00 5.239460000000000228e-01 2.820790000000000242e-01 6.985350000000000170e-01 1.023160000000000042e-01 6.472879999999999745e-01 1.875688999999999940e+00 2.235792000000000002e+00 6.656659999999999799e-01 6.908339999999999481e-01 1.194585999999999926e+00 1.022529000000000021e+00 1.374338000000000060e+00 2.716988999999999876e+00 -2.357393000000000072e+00 -4.503299999999999664e-02 1.729030000000000011e-01 -3.082110999999999823e+00 -1.187969000000000053e+00 1.846540000000000070e+00 2.636850000000000027e-01 -9.831659999999999844e-01 2.695029999999999926e-01 -2.119445999999999941e+00 -2.468571999999999989e+00 -1.474375999999999909e+00 -8.052219999999999933e-01 2.356060000000000099e-01 -7.622069999999999679e-01 -7.123559999999999892e-01 8.132200000000000539e-02 2.264949999999999797e+00 5.328026999999999624e+00 -9.523490000000000011e-01 -1.647362999999999911e+00 -8.322799999999999643e-02 1.718857999999999997e+00 -1.485511999999999944e+00 1.047890999999999906e+00 2.084600000000000064e-01 8.792579999999999840e-01 1.962900000000000061e-02 -4.199200000000000155e-01 -1.251719999999999944e+00 2.148238000000000092e+00 4.841840000000000033e-01 8.396000000000000685e-02 2.182999999999999940e-01 -9.984490000000000309e-01 -5.849000000000000032e-03 1.282732999999999901e+00 -9.726709999999999523e-01 1.845067000000000013e+00 -9.533070000000000155e-01 -1.808299999999999907e-01 -9.027200000000000502e-02 7.389970000000000150e-01 -1.669170000000000098e-01 -7.182079999999999576e-01 -2.090190000000000103e-01 -1.208150000000000057e-01 -6.652379999999999960e-01 -1.397720000000000073e-01 2.439699999999999924e-01 -1.654490000000000127e-01 3.278209999999999735e-01 7.220999999999999988e-03 -8.585509999999999531e-01 1.076092999999999966e+00 -1.514482000000000106e+00 5.571700000000000541e-01 -9.082940000000000458e-01 -4.400149999999999895e-01 6.314720000000000333e-01 -3.771769999999999845e-01 -7.192999999999999394e-02 -8.955990000000000339e-01 8.412600000000000633e-02 3.878420000000000201e-01 9.334620000000000140e-01 8.819040000000000212e-01 6.876000000000000167e-02 9.360270000000000534e-01 -2.990010000000000168e-01 9.415919999999999845e-01 6.305770000000000541e-01 -6.007699999999999846e-02 -3.738730000000000109e-01 -7.943759999999999710e-01 5.449169999999999847e-01 8.370429999999999815e-01 9.915490000000000137e-01 -7.643659999999999899e-01 4.936099999999999932e-01 9.761170000000000124e-01 -3.799739999999999784e-01 -7.047020000000000506e-01 -8.210999999999999549e-03 -1.014199999999999963e-01 8.233970000000000455e-01 5.270280000000000520e-01 1.137569999999999970e-01 1.652215999999999907e+00 -1.074584999999999901e+00 -9.459309999999999663e-01 -6.477230000000000487e-01 -3.725539999999999963e-01 -8.672269999999999701e-01 2.809248999999999885e+00 1.036785999999999985e+00 2.017760000000000109e-01 1.498539000000000065e+00 1.252702999999999900e+00 1.335209000000000090e+00 -9.213799999999999768e-02 -2.105100999999999889e+00 -1.553237999999999897e+00 -6.060520000000000351e-01 -1.486931000000000003e+00 -1.514286000000000021e+00 1.558959999999999901e+00 6.770559999999999912e-01 -3.195899999999999852e-01 2.562899999999999900e-02 -2.055200000000000082e-01 7.578599999999999781e-01 8.145210000000000505e-01 9.261800000000000033e-01 3.673710000000000031e-01 3.484999999999999903e-02 1.190390000000000059e-01 -4.505870000000000153e-01 -1.467551000000000050e+00 1.134567000000000103e+00 5.428089999999999860e-01 3.350279999999999925e-01 2.180877000000000177e+00 -6.914959999999999996e-01 -7.807110000000000438e-01 4.874080000000000079e-01 -4.363299999999999818e-02 -1.295669999999999877e-01 3.740820000000000256e-01 -3.418220000000000147e-01 -8.012240000000000473e-01 3.501110000000000055e-01 -4.033300000000000218e-01 7.556840000000000224e-01 7.416690000000000227e-01 -6.717469999999999830e-01 -3.589999999999999984e-04 -2.195409999999999862e-01 2.478069999999999995e-01 1.075368000000000102e+00 1.915729999999999933e-01 1.349658999999999942e+00 1.418600000000000139e-01 5.183849999999999847e-01 -4.140650000000000164e-01 -2.089431999999999956e+00 9.637639999999999540e-01 -1.476026999999999978e+00 -1.824600000000000111e-01 -7.562389999999999946e-01 -2.064715000000000078e+00 6.196180000000000021e-01 -8.091099999999999681e-02 1.441521000000000052e+00 4.313620000000000232e-01 -5.052870000000000417e-01 7.836410000000000320e-01 2.148100000000000009e-01 -1.042780999999999958e+00 -1.318630000000000080e-01 1.089676000000000089e+00 8.221299999999999442e-02 1.247209999999999930e+00 1.083360000000000101e+00 -2.740400000000000127e-02 5.669870000000000188e-01 -1.387691000000000008e+00 1.534518000000000049e+00 -1.974352000000000107e+00 -3.833299999999999902e-02 -4.422699999999999965e-01 5.421759999999999913e-01 6.786240000000000050e-01 8.009900000000000353e-02 1.413289000000000017e+00 5.288159999999999528e-01 6.537239999999999718e-01 -1.639356999999999953e+00 1.351973000000000091e+00 2.176369999999999971e-01 -4.394009999999999860e-01 1.398705000000000087e+00 2.091760000000000008e-01 -1.119475999999999916e+00 5.708180000000000476e-01 6.219540000000000068e-01 8.141890000000000516e-01 -9.396740000000000093e-01 1.950419999999999932e-01 5.979809999999999848e-01 2.069930999999999965e+00 -4.280680000000000041e-01 -2.215126000000000150e+00 -1.407111000000000001e+00 4.774709999999999788e-01 -5.920100000000000362e-01 -4.412059999999999871e-01 5.688339999999999508e-01 -2.194300000000000070e-02 -5.745399999999999813e-02 1.499260000000000037e-01 -6.357880000000000198e-01 -7.393889999999999629e-01 1.494988999999999901e+00 4.848560000000000092e-01 1.980696999999999930e+00 5.917440000000000477e-01 2.350740000000000052e-01 -3.036429999999999962e-01 -1.730410000000000004e-01 -6.968090000000000117e-01 1.673755000000000104e+00 -2.538799999999999946e-01 -3.810359999999999858e-01 7.760960000000000081e-01 -8.216799999999999660e-01 1.252949999999999897e-01 5.030069999999999819e-01 -5.564580000000000082e-01 2.368599999999999872e-02 -3.394440000000000235e-01 -1.519163000000000041e+00 -1.081463999999999981e+00 -9.809299999999999686e-01 1.158480000000000065e-01 -5.913819999999999633e-01 -7.926999999999999325e-02 -6.570820000000000549e-01 2.590160000000000240e-01 -1.612609999999999877e-01 1.270107000000000097e+00 2.116601000000000177e+00 -1.244526000000000021e+00 1.532786999999999900e+00 -1.766359999999999875e-01 8.908359999999999612e-01 -2.009140000000000092e-01 3.312199999999999867e-02 6.610690000000000177e-01 -8.179880000000000484e-01 -4.837700000000000333e-02 1.575304000000000038e+00 -3.373300000000000187e-01 1.663321999999999967e+00 -5.261010000000000408e-01 -2.414380000000000137e-01 -2.560399999999999898e-01 7.568600000000000327e-02 -4.708379999999999788e-01 -5.324370000000000491e-01 -3.266549999999999732e-01 -5.044699999999999879e-02 6.811369999999999925e-01 -2.594359999999999999e-01 -1.163494000000000028e+00 7.681449999999999667e-01 -1.566245000000000109e+00 1.658000000000000099e-02 -1.393968000000000096e+00 -1.243599999999999983e-01 3.782719999999999971e-01 5.853779999999999539e-01 -1.336799999999999967e-02 5.305710000000000148e-01 -1.438939999999999941e-01 2.216172999999999949e+00 8.640679999999999472e-01 8.209490000000000398e-01 1.180747999999999909e+00 -6.778349999999999653e-01 6.940960000000000463e-01 6.653399999999999592e-02 1.930595999999999979e+00 4.918669999999999987e-01 -2.008129999999999915e-01 2.040901999999999994e+00 -1.729789000000000021e+00 -1.665848999999999913e+00 7.570200000000000262e-01 -1.412647999999999904e+00 -1.389893000000000045e+00 -5.048960000000000115e-01 9.332040000000000335e-01 -3.206699999999999828e-02 2.735159999999999814e-01 9.825040000000000440e-01 -1.303400000000000114e-01 7.754999999999999741e-03 6.580400000000000138e-02 1.506723999999999952e+00 3.705410000000000093e-01 -4.815059999999999896e-01 9.877199999999999869e-02 -1.109154999999999891e+00 -1.535959999999999992e+00 -5.683430000000000426e-01 -3.991370000000000196e-01 -5.528950000000000253e-01 7.186860000000000470e-01 -1.510798000000000085e+00 1.305210999999999899e+00 -1.665719999999999978e-01 -1.548305999999999960e+00 7.604800000000000448e-02 1.049860999999999933e+00 1.030380999999999991e+00 -6.343079999999999830e-01 -2.702220000000000177e-01 -1.342686999999999964e+00 2.007465999999999973e+00 -6.410169999999999479e-01 6.229379999999999917e-01 -6.162180000000000435e-01 1.875759999999999927e-01 -9.719360000000000221e-01 -7.549510000000000387e-01 1.432620000000000005e-01 -1.265727000000000046e+00 4.829939999999999789e-01 -2.968189999999999995e-01 2.739289999999999781e-01 1.321347999999999967e+00 7.896490000000000453e-01 8.403890000000000526e-01 -1.186379999999999990e+00 5.385700000000000209e-02 8.177560000000000384e-01 3.245219999999999771e-01 1.043840000000000101e+00 1.378222999999999976e+00 -2.344469999999999887e-01 3.395000000000000014e-03 -2.995147999999999922e+00 -1.927629999999999899e-01 -3.451299999999999923e-01 9.579969999999999875e-01 6.341020000000000545e-01 -3.077989999999999893e-01 1.232032999999999934e+00 4.325769999999999893e-01 3.023089999999999944e-01 -2.033499999999999891e-02 -7.531060000000000532e-01 -1.437200000000000033e+00 -4.706980000000000053e-01 -5.147479999999999833e-01 -3.690010000000000234e-01 8.029999999999999638e-02 -7.559000000000000441e-02 7.889450000000000074e-01 -3.074333999999999900e+00 -1.005184000000000077e+00 -7.784769999999999746e-01 -1.033981000000000039e+00 9.245299999999999352e-02 9.069359999999999644e-01 -7.268189999999999928e-01 4.133589999999999764e-01 -2.950420000000000265e-01 -2.344810999999999979e+00 -8.316600000000000381e-02 -2.716230000000000033e-01 -5.349690000000000278e-01 5.207159999999999567e-01 -1.407089000000000034e+00 7.451379999999999670e-01 7.752599999999999492e-01 -8.657759999999999900e-01 8.965170000000000083e-01 -9.038890000000000535e-01 1.915718999999999950e+00 -8.250089999999999923e-01 6.067639999999999700e-01 2.720779999999999865e-01 -4.806699999999999862e-01 -5.049609999999999932e-01 5.296340000000000492e-01 6.601100000000000023e-02 -3.700680000000000081e-01 -2.238490000000000091e+00 -8.911790000000000544e-01 -1.217384000000000022e+00 -4.806900000000000062e-02 5.444970000000000088e-01 -3.036119999999999930e-01 -9.654730000000000256e-01 2.660460000000000047e-01 -5.087469999999999493e-01 3.538760000000000239e-01 2.177000000000000116e-02 -1.051850000000000007e-01 2.738099999999999978e-01 4.906679999999999930e-01 -1.935830000000000051e-01 1.509536999999999907e+00 -2.366199999999999901e-02 -1.524860000000000104e-01 -1.395220000000000071e-01 -6.783970000000000278e-01 3.133759999999999879e-01 2.670950000000000268e-01 1.087652999999999981e+00 -5.676379999999999759e-01 -3.377769999999999939e-01 -1.472140999999999922e+00 9.538670000000000204e-01 8.402260000000000284e-01 -7.539090000000000513e-01 -4.957389999999999852e-01 1.797670000000000101e-01 -1.529206999999999983e+00 3.496900000000000008e-02 2.830909999999999815e-01 3.736829999999999874e-01 7.751430000000000264e-01 -6.865409999999999568e-01 -3.608230000000000048e-01 -8.503000000000000141e-03 2.446810000000000096e-01 2.457260000000000000e-01 -7.911319999999999464e-01 8.667460000000000164e-01 -1.121779999999999999e-01 -2.029060000000000030e-01 -8.925170000000000048e-01 3.729339999999999877e-01 4.234700000000000131e-01 1.379420000000000091e-01 -1.463408000000000042e+00 -8.640139999999999487e-01 -1.789638000000000062e+00 1.422039999999999971e-01 -4.507840000000000180e-01 -7.777610000000000356e-01 5.166929999999999579e-01 1.331966999999999901e+00 3.868460000000000232e-01 -4.911909999999999887e-01 -6.786999999999999977e-02 1.335377999999999954e+00 1.643439999999999901e-01 -7.076940000000000452e-01 2.417729000000000017e+00 -3.064879999999999827e-01 -1.276583000000000023e+00 -6.160809999999999897e-01 9.150049999999999573e-01 8.479600000000000470e-01 9.550799999999999568e-02 2.155630000000000046e-01 2.835999999999999979e-02 -4.292179999999999884e-01 -3.655109999999999748e-01 1.246249999999999997e-01 -1.344749999999999890e+00 1.384173000000000098e+00 1.000483000000000011e+00 -2.714110000000000134e-01 6.030590000000000117e-01 -5.786800000000000277e-02 -1.154706000000000010e+00 -3.986169999999999991e-01 -6.970700000000000507e-02 1.761959999999999915e-01 -3.432879999999999820e-01 5.192860000000000253e-01 -1.481119999999999937e-01 1.369966000000000017e+00 -5.444409999999999528e-01 -7.409430000000000183e-01 1.009020000000000056e-01 -9.757190000000000030e-01 -5.440120000000000511e-01 2.287310000000000176e+00 -3.636969999999999814e+00 -1.906354000000000104e+00 -5.713359999999999550e-01 -9.862830000000000208e-01 -1.658076000000000105e+00 1.328440000000000065e+00 -5.530680000000000041e-01 -2.354565000000000019e+00 7.462440000000000184e-01 -6.205039999999999445e-01 1.858589999999999964e+00 -8.576979999999999604e-01 1.659079999999999999e-01 -1.230178999999999911e+00 -6.652179999999999760e-01 9.987920000000000131e-01 -1.094587999999999894e+00 -4.422199999999999742e-02 1.142930999999999919e+00 1.495460999999999929e+00 8.378149999999999764e-01 8.608170000000000543e-01 -1.003082999999999947e+00 -1.776469999999999994e-01 -4.067999999999999568e-03 -6.075770000000000337e-01 -3.924830000000000263e-01 -1.465781000000000001e+00 6.541719999999999757e-01 3.224779999999999869e-01 -6.344400000000000039e-02 -7.743889999999999940e-01 -1.407920000000000005e-01 6.733160000000000256e-01 2.822990000000000221e-01 -1.359760000000000135e-01 -1.216237999999999930e+00 2.185499999999999943e-02 3.774529999999999830e-01 1.143586999999999909e+00 4.012069999999999803e-01 -1.373024000000000022e+00 -4.842529999999999890e-01 4.994819999999999816e-01 -3.112599999999999811e-01 1.575080000000000036e+00 -1.009946000000000010e+00 -9.315280000000000227e-01 2.678800000000000070e-01 2.878100000000000103e-01 -5.358650000000000357e-01 -9.151989999999999847e-01 2.129399999999999904e-01 -4.304709999999999925e-01 -3.866559999999999997e-01 -1.217737000000000069e+00 -3.342829999999999968e-01 1.312896999999999981e+00 1.397475000000000023e+00 5.319369999999999932e-01 -7.179099999999999371e-02 8.190499999999999448e-01 -6.878680000000000350e-01 1.884212999999999916e+00 7.612139999999999462e-01 5.407969999999999722e-01 1.836772999999999989e+00 5.002670000000000172e-01 -2.011890000000000067e-01 1.228770000000000001e-01 7.875929999999999875e-01 1.783085999999999949e+00 7.947610000000000507e-01 3.237490000000000090e-01 -2.943799999999999889e-02 3.363200000000000078e-01 -1.745470000000000077e-01 3.661079999999999890e-01 1.181122999999999923e+00 -1.571382999999999974e+00 7.907149999999999457e-01 -2.532989999999999964e-01 7.576040000000000552e-01 -7.941650000000000098e-01 1.940620000000000123e-01 6.408350000000000435e-01 -8.963430000000000009e-01 -2.561060000000000003e-01 -2.020000000000000129e-01 2.192870000000000097e-01 -2.247303000000000051e+00 -3.841499999999999915e-01 -4.253899999999999904e-01 7.339759999999999618e-01 -2.617419999999999747e-01 -4.222499999999999865e-02 8.509839999999999627e-01 9.805239999999999512e-01 -1.420669999999999988e-01 -4.041000000000000147e-02 3.415320000000000022e-01 1.958226999999999940e+00 -1.449146999999999963e+00 -3.229400000000000048e-01 -3.214910000000000267e-01 3.251370000000000093e-01 3.375850000000000239e-01 1.402269999999999905e+00 -1.368182999999999927e+00 4.42