2.074359999999999982e+00 6.771049999999999791e+00 1.036700000000000088e+01 2.626809999999999867e+00 6.631260000000000154e+00 2.320169999999999888e+01 2.459189999999999987e+00 1.521819999999999951e+01 9.274029999999999774e+00 2.369759999999999867e+00 1.544929999999999914e+01 1.953389999999999915e+01 1.089719999999999978e+01 6.921380000000000088e+00 1.246369999999999933e+01 1.114230000000000054e+01 6.123099999999999987e+00 2.230209999999999937e+01 1.006550000000000011e+01 1.646399999999999864e+01 8.891500000000000625e+00 8.847210000000000463e+00 1.708220000000000027e+01 2.271959999999999980e+01 1.939899999999999958e-01 4.144999999999999796e-01 9.716440000000000410e+00 2.420040000000000191e+00 1.840160000000000018e+00 2.293230000000000146e+01 2.509059999999999846e+00 1.095219999999999949e+01 1.003129999999999988e+01 1.783749999999999947e+00 1.043999999999999950e+01 2.532349999999999923e+01 1.165429999999999922e+01 2.058260000000000201e+00 1.129679999999999929e+01 9.226760000000000517e+00 4.696889999999999787e+00 2.434339999999999904e+01 1.058300000000000018e+01 1.045410000000000039e+01 1.663670000000000115e+01 1.123160000000000025e+01 1.071289999999999942e+01 3.007760000000000211e+00 2.433349999999999902e+00 6.154679999999999929e+00 3.451439999999999841e+00 2.532750000000000057e+00 1.071250000000000036e+01 1.627629999999999910e+01 9.944199999999999706e-01 1.618830000000000169e+01 2.977879999999999860e+00 6.563419999999999810e+00 1.066479999999999961e+01 1.606759999999999877e+01 1.014509999999999934e+01 6.669769999999999754e+00 3.128049999999999997e+00 8.863490000000000535e+00 8.150130000000000763e+00 1.558880000000000088e+01 1.127020000000000088e+01 1.462679999999999936e+01 2.645249999999999879e+00 1.184029999999999916e+01 1.484849999999999959e+01 1.544730000000000025e+01 1.700520000000000032e+00 2.287640000000000118e+00 1.950360000000000094e+00 1.739549999999999841e+01 1.722309999999999874e+01 1.558840000000000003e+01 2.618250000000000188e+00 1.063410000000000011e+01 6.982219999999999871e+00 2.454349999999999810e+00 1.102970000000000006e+01 1.979860000000000042e+01 9.688909999999999911e+00 8.422800000000000287e-01 2.950909999999999922e+00 1.120809999999999995e+01 2.624460000000000015e+00 1.865719999999999956e+01 1.050050000000000061e+01 1.079560000000000031e+01 7.982009999999999827e+00 1.053449999999999953e+01 1.047690000000000055e+01 2.291179999999999950e+01 2.245109999999999939e+00 2.119390000000000107e+00 5.811169999999999725e+00 1.950110000000000010e+00 2.551180000000000003e+00 1.865579999999999927e+01 1.737280000000000157e+01 8.639139999999999375e+00 1.025890000000000057e+01 1.326900000000000024e-01 8.013709999999999667e+00 2.200929999999999964e+01 1.084259999999999913e+01 1.764150000000000107e+00 5.073800000000000310e+00 1.097639999999999993e+01 2.726430000000000131e+00 2.132799999999999940e+01 1.123210000000000086e+01 1.107850000000000001e+01 1.092539999999999978e+01 1.075290000000000035e+01 9.698000000000000398e+00 5.626900000000000235e-01 2.323469999999999924e+00 6.414729999999999599e+00 7.207650000000000112e+00 2.343780000000000197e+00 6.111480000000000246e+00 1.454209999999999958e+01 2.135629999999999917e+00 1.544069999999999965e+01 6.217450000000000365e+00 4.182859999999999800e+00 1.375019999999999953e+01 1.557049999999999912e+01 1.082370000000000054e+01 6.883869999999999933e+00 8.334509999999999863e+00 1.115419999999999945e+01 7.718210000000000015e+00 1.793560000000000088e+01 1.010399999999999920e+01 1.495059999999999967e+01 5.815190000000000303e+00 1.059689999999999976e+01 1.588870000000000005e+01 2.116689999999999827e+01 1.392630000000000035e+00 5.852719999999999700e+00 2.525489999999999924e+01 2.181970000000000187e+00 2.086110000000000131e+00 1.566590000000000060e+01 1.530640000000000001e+00 1.452149999999999963e+01 2.536039999999999850e+01 1.944490000000000052e+00 1.524729999999999919e+01 1.201229999999999976e+01 1.124039999999999928e+01 6.655660000000000132e+00 2.512549999999999883e+01 1.203619999999999912e+01 6.230780000000000207e+00 1.538419999999999987e+01 1.022259999999999991e+01 1.486260000000000048e+01 2.483980000000000032e+01 1.066709999999999958e+01 1.546020000000000039e+01 1.271920000000000073e+01 4.685999999999999943e+00 3.908920000000000172e+00 3.464640000000000164e+00 2.454520000000000035e+00 2.555629999999999846e+00 1.107949999999999946e+01 1.810859999999999914e+00 1.069410000000000061e+01 3.495499999999999829e+00 2.386890000000000178e+00 1.059699999999999953e+01 1.297940000000000005e+01 1.266259999999999941e+01 3.219380000000000130e+00 2.991350000000000176e+00 1.148170000000000002e+01 1.968050000000000077e+00 1.587850000000000072e+01 1.334859999999999935e+01 1.253940000000000055e+01 3.077580000000000204e+00 1.120579999999999998e+01 1.141799999999999926e+01 1.929970000000000141e+01 4.668829999999999814e+00 5.059350000000000236e+00 9.934240000000000848e+00 4.317239999999999966e+00 4.490779999999999994e+00 2.167810000000000059e+01 5.189059999999999562e+00 1.265680000000000049e+01 9.783300000000000551e+00 3.713410000000000100e+00 1.311580000000000013e+01 2.219500000000000028e+01 1.250109999999999921e+01 3.872560000000000002e+00 8.734730000000000771e+00 1.410040000000000049e+01 4.691049999999999720e+00 2.175319999999999965e+01 1.363949999999999996e+01 1.283649999999999913e+01 9.747700000000000031e+00 1.219079999999999941e+01 1.341990000000000016e+01 2.216489999999999938e+01 3.656429999999999847e+00 8.600910000000000721e+00 5.357800000000000340e-01 4.358749999999999680e+00 8.322060000000000457e+00 1.297729999999999961e+01 4.456430000000000113e+00 1.112999999999999927e-02 4.079200000000000048e-01 3.566359999999999975e+00 4.210400000000000253e-01 1.339090000000000025e+01 1.475040000000000084e+01 6.877480000000000260e+00 1.230529999999999902e+00 1.344040000000000035e+01 9.570909999999999584e+00 1.341310000000000002e+01 1.218820000000000014e+01 3.447999999999999954e-01 7.811500000000000110e-01 1.322700000000000031e+01 1.742150000000000176e+01 1.259900000000000020e+01 4.530039999999999623e+00 9.086370000000000502e+00 7.193240000000000300e+00 4.530719999999999636e+00 8.634669999999999845e+00 1.926839999999999975e+01 4.676770000000000316e+00 5.118700000000000472e-01 7.592399999999999594e+00 5.319549999999999557e+00 1.722550000000000026e+01 1.933099999999999952e+01 1.305659999999999954e+01 8.943110000000000781e+00 6.859390000000000320e+00 1.355170000000000030e+01 8.524380000000000734e+00 1.945579999999999998e+01 1.549760000000000026e+01 1.499430000000000085e+01 6.934849999999999959e+00 1.356770000000000032e+01 1.720660000000000167e+01 1.994989999999999952e+01 6.282720000000000304e+00 2.253229999999999844e+00 8.739720000000000155e+00 6.026779999999999582e+00 2.086009999999999920e+00 2.331149999999999878e+01 6.898530000000000051e+00 1.101099999999999923e+01 8.019890000000000185e+00 9.253759999999999764e+00 8.343360000000000554e+00 2.216929999999999978e+01 1.548559999999999981e+01 2.031540000000000123e+00 8.984429999999999694e+00 1.560820000000000007e+01 1.668679999999999941e+00 2.197340000000000160e+01 1.481550000000000011e+01 1.070710000000000051e+01 9.345290000000000319e+00 1.496659999999999968e+01 1.105659999999999954e+01 2.277060000000000173e+01 6.698159999999999670e+00 5.906520000000000437e+00 4.754410000000000025e+00 6.696279999999999788e+00 2.227520000000000167e+00 1.282770000000000010e+01 6.156310000000000393e+00 1.030219999999999914e+01 5.550399999999999778e-01 6.322189999999999976e+00 1.078330000000000055e+01 1.290840000000000032e+01 1.527630000000000088e+01 1.326119999999999965e+00 9.096999999999999531e-02 1.484580000000000055e+01 2.441419999999999924e+00 1.542300000000000004e+01 1.522690000000000055e+01 9.938850000000000406e+00 1.051080000000000014e+00 1.550319999999999965e+01 1.115680000000000049e+01 1.368040000000000056e+01 8.272710000000000008e+00 8.718629999999999214e+00 3.708489999999999842e+00 4.880410000000000359e+00 3.922410000000000174e+00 1.621529999999999916e+01 6.925790000000000113e+00 1.485229999999999961e+01 5.851200000000000401e+00 6.677920000000000300e+00 1.586759999999999948e+01 1.705839999999999890e+01 1.499799999999999933e+01 6.303420000000000023e+00 4.359720000000000262e+00 1.507230000000000025e+01 6.239200000000000301e+00 1.443790000000000084e+01 1.535469999999999935e+01 1.523879999999999946e+01 3.799739999999999895e+00 1.572780000000000022e+01 1.552270000000000039e+01 1.812900000000000134e+01 6.171809999999999796e+00 6.541529999999999845e+00 2.277060000000000173e+01 6.816639999999999588e+00 6.107560000000000322e+00 1.180240000000000045e+01 7.087760000000000282e+00 1.526490000000000080e+01 2.900419999999999998e+00 6.399250000000000327e+00 1.505739999999999945e+01 1.344940000000000069e+01 1.638090000000000046e+01 6.722139999999999560e+00 2.429660000000000153e+01 1.447990000000000066e+01 6.577510000000000190e+00 1.110849999999999937e+01 1.384190000000000076e+01 1.526849999999999952e+01 2.425049999999999883e+01 1.536299999999999955e+01 1.510950000000000060e+01 1.472530000000000072e+01 6.893930000000000113e+00 3.108210000000000139e+00 7.390400000000000302e-01 7.518430000000000391e+00 1.114370000000000083e+00 1.548750000000000071e+01 4.539710000000000356e+00 1.362700000000000067e+01 2.617669999999999941e+00 6.454100000000000392e+00 1.166830000000000034e+01 1.902199999999999847e+01 1.575220000000000020e+01 1.323399999999999910e+00 3.506639999999999979e+00 1.554090000000000060e+01 2.121049999999999880e+00 1.861670000000000158e+01 1.695139999999999958e+01 8.758850000000000691e+00 3.274410000000000043e+00 1.472380000000000067e+01 1.148770000000000024e+01 1.649609999999999843e+01 6.153649999999999842e+00 6.493140000000000356e+00 8.174070000000000391e+00 6.564259999999999984e+00 6.886949999999999683e+00 1.912280000000000157e+01 7.068599999999999994e+00 1.605480000000000018e+01 9.451079999999999259e+00 6.827379999999999782e+00 1.530760000000000076e+01 2.249330000000000140e+01 1.548559999999999981e+01 6.483399999999999608e+00 7.726659999999999862e+00 1.552689999999999948e+01 6.542740000000000222e+00 1.908490000000000109e+01 1.583799999999999919e+01 1.549520000000000053e+01 1.137250000000000050e+01 1.523859999999999992e+01 1.505640000000000001e+01 2.159209999999999852e+01 7.302979999999999805e+00 2.085510000000000197e+00 4.104000000000000092e+00 7.023559999999999803e+00 1.920960000000000001e+00 2.078409999999999869e+01 6.317949999999999733e+00 1.060699999999999932e+01 3.869829999999999881e+00 6.293040000000000411e+00 1.039760000000000062e+01 2.244979999999999976e+01 1.361209999999999987e+01 2.316999999999999962e-02 6.311289999999999623e+00 8.688000000000000167e-01 1.634829999999999828e+01 2.227250000000000085e+01 1.513729999999999976e+01 1.106439999999999912e+01 4.909989999999999633e+00 1.535280000000000022e+01 1.077180000000000071e+01 1.923649999999999949e+01 1.056090000000000018e+01 5.290499999999999758e+00 5.739020000000000010e+00 9.041510000000000602e+00 4.729680000000000106e+00 1.800309999999999988e+01 8.942090000000000316e+00 1.253759999999999941e+01 5.893550000000000288e+00 8.628569999999999851e+00 1.386950000000000038e+01 1.858930000000000149e+01 1.653839999999999932e+01 4.073330000000000339e+00 5.758460000000000356e+00 2.083769999999999900e+00 6.114349999999999952e+00 1.792780000000000129e+01 1.749259999999999948e+01 1.269519999999999982e+01 5.467880000000000074e+00 4.683100000000000041e-01 1.292420000000000080e+01 1.821249999999999858e+01 9.154830000000000467e+00 4.399420000000000108e+00 1.258280000000000065e+01 6.711020000000000429e+00 6.607179999999999609e+00 1.314929999999999932e+00 8.719049999999999301e+00 1.317169999999999952e+01 1.243740000000000023e+01 6.457460000000000200e+00 1.433890000000000065e+01 2.507999999999999829e+01 1.690569999999999951e+01 4.255279999999999951e+00 1.222400000000000020e+01 1.181999999999999995e-01 3.443810000000000038e+00 2.431370000000000076e+01 1.692610000000000170e+01 1.287260000000000026e+01 1.183649999999999913e+01 1.663540000000000063e+01 1.221230000000000082e+01 2.517190000000000083e+01 4.284980000000000011e+00 8.745290000000000674e+00 1.015509999999999913e+01 3.932990000000000208e+00 8.887199999999999989e+00 2.284700000000000131e+01 4.202510000000000190e+00 1.081000000000000016e-02 1.041610000000000014e+01 1.330300000000000082e+01 9.212949999999999307e+00 1.030809999999999960e+01 1.322830000000000084e+01 8.656840000000000757e+00 2.272380000000000067e+01 1.310469999999999935e+01 1.307800000000000074e-01 2.294889999999999830e+01 9.140579999999999927e+00 4.031850000000000378e+00 2.268419999999999881e+00 8.412620000000000431e+00 1.287059999999999960e+01 2.157319999999999904e+00 1.721920000000000073e+01 4.499699999999999811e+00 2.393209999999999837e+00 1.720990000000000109e+01 1.323220000000000063e+01 2.463529999999999998e+00 2.160000000000000114e-02 1.289470000000000027e+01 8.967240000000000322e+00 8.483819999999999695e+00 4.529099999999999682e+00 2.142950000000000088e+01 9.138830000000000453e+00 1.328490000000000038e+01 2.164799999999999969e+01 3.880170000000000119e+00 8.183460000000000178e+00 4.041050000000000253e+00 1.270780000000000065e+01 8.536799999999999500e+00 4.049220000000000041e+00 1.336839999999999939e+01 8.740790000000000504e+00 1.629980000000000118e+01 4.448979999999999713e+00 1.718339999999999890e+01 2.269350000000000023e+01 1.338279999999999959e+01 1.742500000000000071e+01 9.537879999999999470e+00 8.923299999999999343e+00 4.117060000000000386e+00 1.533939999999999948e+01 8.591559999999999420e+00 1.325179999999999936e+01 1.518740000000000023e+01 3.924099999999999810e-01 4.207720000000000127e+00 1.511369999999999969e+01 4.107799999999999785e-01 1.327260000000000062e+01 1.476759999999999984e+01 1.728290000000000148e+01 4.412420000000000009e+00 8.789999999999999147e+00 1.484999999999999931e-01 4.351569999999999716e+00 2.096959999999999980e+01 1.721209999999999951e+01 1.279969999999999963e+01 2.180039999999999978e+01 8.537770000000000081e+00 4.395439999999999792e+00 8.825900000000000745e+00 8.846550000000000580e+00 1.305599999999999916e+01 8.938459999999999184e+00 4.711619999999999919e+00 1.748029999999999973e+01 3.762189999999999923e+00 4.346610000000000085e+00 1.734199999999999875e+01 1.651539999999999964e+01 4.790149999999999686e+00 8.524200000000000443e+00 1.660419999999999874e+01 1.298349999999999937e+01 1.705989999999999895e+01 3.562899999999999956e+00 1.348760000000000048e+01 1.748710000000000164e+01 1.650679999999999836e+01 4.575510000000000410e+00 4.421730000000000160e+00 1.306569999999999965e+01 4.259649999999999714e+00 4.417440000000000033e+00 1.191900000000000043e-01 4.376789999999999736e+00 1.293030000000000079e+01 1.255020000000000024e+01 3.949730000000000185e+00 1.251120000000000054e+01 2.513060000000000116e+01 1.307440000000000069e+01 4.345909999999999940e+00 1.224719999999999942e+01 1.333009999999999984e+01 4.355590000000000295e+00 2.504550000000000054e+01 1.311550000000000082e+01 1.335139999999999993e+01 1.268999999999999950e+01 1.271080000000000076e+01 1.263020000000000032e+01 1.663300000000000056e-01 8.419059999999999988e+00 8.536089999999999733e+00 6.660549999999999748e+00 8.786149999999999238e+00 9.040609999999999147e+00 1.919549999999999912e+01 8.813380000000000436e+00 1.624200000000000088e-01 6.441840000000000011e+00 8.962300000000000821e+00 2.546599999999999975e-01 1.906449999999999889e+01 1.697710000000000008e+01 8.614760000000000417e+00 6.398220000000000240e+00 1.739189999999999969e+01 8.503869999999999152e+00 1.857499999999999929e+01 9.514999999999999847e-02 1.700699999999999990e-01 6.464010000000000034e+00 2.642700000000000049e-01 1.308199999999999918e-01 1.915340000000000131e+01 1.723870000000000147e+01 6.512970000000000148e+00 1.295230000000000103e+00 2.597999999999999962e-02 5.708669999999999689e+00 1.372809999999999953e+01 1.694490000000000052e+01 1.485940000000000083e+01 1.093490000000000073e+00 1.458699999999999997e-01 1.502309999999999945e+01 1.361880000000000024e+01 9.014060000000000628e+00 6.073400000000000354e+00 1.103169999999999984e+00 9.097030000000000172e+00 5.862379999999999924e+00 1.405269999999999975e+01 8.483060000000000045e+00 1.484619999999999962e+01 1.287160000000000082e+00 8.514620000000000744e+00 1.501570000000000071e+01 1.407240000000000002e+01 1.575999999999999901e-01 2.790039999999999853e+00 1.021289999999999942e+01 4.040000000000000258e-01 2.642560000000000020e+00 2.189179999999999993e+01 9.131000000000000227e-02 1.127330000000000076e+01 1.040049999999999919e+01 1.734250000000000114e+01 1.094239999999999924e+01 2.269819999999999993e+01 8.838020000000000209e+00 2.667450000000000099e+00 9.662739999999999441e+00 8.547219999999999374e+00 2.587619999999999809e+00 2.259219999999999828e+01 8.833990000000000009e+00 1.144919999999999938e+01 9.982939999999999259e+00 8.367549999999999599e+00 1.140339999999999954e+01 2.295560000000000045e+01 1.695619999999999905e+01 6.699749999999999872e+00 5.273500000000000298e+00 1.719259999999999877e+01 6.737020000000000231e+00 1.772400000000000020e+01 1.726259999999999906e+01 1.579219999999999935e+01 5.407799999999999940e+00 5.925799999999999956e-01 1.597489999999999988e+01 1.795970000000000155e+01 8.660980000000000345e+00 6.796640000000000015e+00 5.447330000000000005e+00 8.622479999999999478e+00 7.247349999999999959e+00 1.794480000000000075e+01 8.146779999999999688e+00 1.638879999999999981e+01 4.939960000000000129e+00 9.165300000000000225e+00 1.639489999999999981e+01 1.750900000000000034e+01 1.710569999999999879e+01 2.741940000000000044e+00 1.050499999999999989e+00 1.744010000000000105e+01 2.424679999999999946e+00 1.401670000000000016e+01 1.738029999999999831e+01 1.081509999999999927e+01 1.530089999999999950e+00 4.495500000000000052e-01 1.152490000000000059e+01 1.353819999999999979e+01 9.251039999999999708e+00 2.155330000000000190e+00 1.219090000000000007e+00 8.767530000000000712e+00 2.365829999999999878e+00 1.409179999999999922e+01 8.599130000000000607e+00 1.081610000000000049e+01 1.612449999999999939e+00 8.457779999999999632e+00 1.136679999999999957e+01 1.429490000000000016e+01 1.049949999999999939e+00 8.669019999999999726e+00 7.741319999999999979e+00 1.751619999999999955e+00 8.660719999999999530e+00 1.927990000000000137e+01 1.830670000000000019e+00 1.773999999999999883e-02 7.437160000000000437e+00 1.812270000000000048e+00 1.815299999999999969e-01 2.036080000000000112e+01 9.736349999999999838e+00 8.810060000000000002e+00 8.221809999999999619e+00 1.047569999999999979e+01 9.246059999999999945e+00 2.018479999999999919e+01 1.073859999999999992e+01 2.103999999999999967e-02 7.036109999999999864e+00 1.082290000000000063e+01 5.364299999999999624e-01 1.982600000000000051e+01 1.494680000000000009e+00 4.144260000000000055e+00 3.816450000000000120e+00 2.108610000000000095e+00 4.121719999999999828e+00 1.610970000000000013e+01 1.437119999999999953e+00 1.336430000000000007e+01 3.728559999999999874e+00 1.948709999999999942e+00 1.318849999999999945e+01 1.614000000000000057e+01 1.060989999999999966e+01 4.336929999999999730e+00 3.987210000000000143e+00 1.094919999999999938e+01 4.283800000000000274e+00 1.633889999999999887e+01 1.003490000000000038e+01 1.301329999999999920e+01 3.987229999999999830e+00 1.003919999999999924e+01 1.357690000000000019e+01 1.643270000000000053e+01 1.209200000000000053e+00 4.072809999999999597e+00 7.441399999999999793e+00 1.933200000000000029e+00 4.685279999999999667e+00 2.001839999999999975e+01 1.684239999999999959e+00 1.284830000000000005e+01 7.319799999999999862e+00 1.476469999999999949e+00 1.307949999999999946e+01 2.055699999999999861e+01 1.046320000000000050e+01 4.618240000000000123e+00 7.651270000000000238e+00 1.036969999999999992e+01 4.671899999999999942e+00 2.017500000000000071e+01 1.071439999999999948e+01 1.342220000000000013e+01 7.922320000000000029e+00 1.117409999999999926e+01 1.358980000000000032e+01 2.009380000000000166e+01 2.403929999999999900e+00 8.716250000000000497e+00 1.132939999999999969e+01 2.055639999999999912e+00 8.494320000000000093e+00 2.424170000000000158e+01 2.150549999999999962e+00 1.734740000000000038e+01 1.163679999999999914e+01 2.597929999999999851e+00 1.672619999999999862e+01 2.378340000000000032e+01 1.174849999999999994e+01 9.137169999999999348e+00 1.188850000000000051e+01 1.138719999999999999e+01 8.540509999999999380e+00 2.393199999999999861e+01 1.168890000000000029e+01 6.493999999999999773e-02 1.064770000000000039e+01 1.143950000000000067e+01 2.366699999999999915e-01 2.410450000000000159e+01 2.757470000000000088e+00 1.364200000000000135e-01 2.689350000000000129e+00 2.432129999999999903e+00 1.717109999999999914e+01 1.536020000000000074e+01 2.116530000000000022e+00 8.368330000000000268e+00 2.867480000000000029e+00 3.196670000000000122e+00 8.537570000000000547e+00 1.534779999999999944e+01 1.106370000000000076e+01 1.689819999999999922e+01 2.613309999999999800e+00 1.194250000000000078e+01 1.734570000000000078e+01 1.505390000000000050e+01 1.105550000000000033e+01 8.576219999999999288e+00 2.529860000000000220e+00 1.135030000000000072e+01 8.426289999999999836e+00 1.521570000000000000e+01 2.694399999999999906e+00 4.836960000000000370e+00 1.213160000000000061e+01 2.869419999999999860e+00 4.544150000000000134e+00 2.404169999999999874e+01 3.093770000000000131e+00 1.294359999999999999e+01 1.099189999999999934e+01 2.078149999999999942e+00 1.232959999999999923e+01 2.413990000000000080e+01 1.124859999999999971e+01 4.343410000000000437e+00 1.122450000000000081e+01 1.168159999999999954e+01 4.250090000000000146e+00 2.388469999999999871e+01 1.148279999999999923e+01 1.340300000000000047e+01 1.150820000000000043e+01 1.084999999999999964e+01 1.234800000000000075e+01 2.476439999999999841e+01 4.179800000000000182e+00 6.051079999999999792e+00 4.843650000000000233e+00 4.713160000000000238e+00 6.795659999999999812e+00 1.766819999999999879e+01 4.749749999999999694e+00 1.582249999999999979e+01 4.738170000000000215e+00 4.590519999999999712e+00 1.584319999999999951e+01 1.791929999999999978e+01 1.272199999999999953e+01 6.796509999999999607e+00 5.191749999999999865e+00 1.361340000000000039e+01 6.839710000000000178e+00 1.737190000000000012e+01 1.277619999999999933e+01 1.555879999999999974e+01 4.888740000000000308e+00 1.330990000000000073e+01 1.580669999999999931e+01 1.789600000000000080e+01 4.331430000000000113e+00 2.553030000000000133e+00 9.702600000000000113e-01 4.437359999999999971e+00 2.691320000000000157e+00 1.413020000000000032e+01 4.063200000000000145e+00 1.102590000000000003e+01 1.363609999999999989e+00 4.264529999999999710e+00 1.121030000000000015e+01 1.373080000000000034e+01 1.361459999999999937e+01 2.613999999999999879e+00 9.189599999999999991e-01 1.308549999999999969e+01 2.755059999999999842e+00 1.360360000000000014e+01 1.296669999999999945e+01 1.099109999999999943e+01 1.467710000000000070e+00 1.323499999999999943e+01 1.187320000000000064e+01 1.414840000000000053e+01 4.049319999999999808e+00 7.140530000000000044e+00 8.939220000000000610e+00 4.090690000000000381e+00 7.136309999999999931e+00 2.151569999999999894e+01 4.639020000000000366e+00 1.576219999999999999e+01 8.844379999999999242e+00 4.690059999999999896e+00 1.550109999999999921e+01 2.129279999999999973e+01 1.298259999999999970e+01 7.200540000000000163e+00 9.374029999999999418e+00 1.322279999999999944e+01 6.974450000000000038e+00 2.121580000000000155e+01 1.326239999999999952e+01 1.584079999999999977e+01 8.301930000000000476e+00 1.313899999999999935e+01 1.576670000000000016e+01 2.166560000000000130e+01 3.907669999999999977e+00 5.909379999999999633e+00 1.349229999999999929e+00 5.094669999999999810e+00 5.859469999999999956e+00 1.424900000000000055e+01 4.074139999999999873e+00 1.432300000000000040e+01 7.339599999999999458e-01 3.866750000000000131e+00 1.450070000000000014e+01 1.360549999999999926e+01 1.298049999999999926e+01 5.713289999999999758e+00 1.049649999999999972e+00 1.321139999999999937e+01 6.218250000000000277e+00 1.320989999999999931e+01 1.299789999999999957e+01 1.425689999999999991e+01 1.225589999999999957e+00 1.309999999999999964e+01 1.524549999999999983e+01 1.357690000000000019e+01 4.497959999999999958e+00 1.610190000000000010e+00 5.148990000000000400e+00 4.730030000000000179e+00 1.609879999999999978e+00 1.767599999999999838e+01 4.180970000000000297e+00 1.006129999999999924e+01 5.258339999999999570e+00 4.749139999999999695e+00 1.031649999999999956e+01 1.785379999999999967e+01 1.317849999999999966e+01 1.448720000000000008e+00 4.597409999999999997e+00 1.356439999999999912e+01 1.794699999999999962e+00 1.741090000000000160e+01 1.237570000000000014e+01 1.051270000000000060e+01 5.220010000000000261e+00 1.327570000000000050e+01 1.034730000000000061e+01 1.790080000000000027e+01 3.952379999999999782e+00 1.872470000000000079e+00 9.251129999999999853e+00 4.187030000000000030e+00 1.369539999999999980e+00 2.144069999999999965e+01 4.430439999999999934e+00 1.071369999999999933e+01 8.783099999999999241e+00 4.102579999999999671e+00 1.063560000000000016e+01 2.163929999999999865e+01 1.346780000000000044e+01 2.051190000000000069e+00 8.021459999999999368e+00 1.317079999999999984e+01 1.651999999999999913e+00 2.126970000000000027e+01 1.269459999999999944e+01 1.092960000000000065e+01 8.951159999999999783e+00 1.295390000000000086e+01 1.048559999999999981e+01 2.169079999999999941e+01 6.010959999999999859e+00 4.036109999999999864e+00 1.164489999999999981e+01 5.950739999999999696e+00 4.551720000000000432e+00 2.436489999999999867e+01 6.288030000000000008e+00 1.314470000000000027e+01 1.174409999999999954e+01 5.669310000000000294e+00 1.234329999999999927e+01 2.398819999999999908e+01 1.469780000000000086e+01 4.247289999999999566e+00 1.105959999999999965e+01 1.499210000000000065e+01 4.216459999999999653e+00 2.362730000000000175e+01 1.492900000000000027e+01 1.318890000000000029e+01 1.174670000000000059e+01 1.413790000000000013e+01 1.294919999999999938e+01 2.403119999999999834e+01 6.272350000000000314e+00 1.579000000000000126e-01 2.348479999999999901e+00 5.861469999999999736e+00 1.714329999999999998e+01 1.523590000000000089e+01 5.907849999999999824e+00 8.233100000000000307e+00 2.920729999999999826e+00 6.449460000000000193e+00 8.603960000000000719e+00 1.515579999999999927e+01 1.463829999999999920e+01 1.710269999999999868e+01 2.356650000000000134e+00 1.524089999999999989e+01 3.153000000000000247e-02 1.537959999999999994e+01 1.452210000000000001e+01 8.559919999999999973e+00 2.855030000000000179e+00 1.491159999999999997e+01 9.012719999999999843e+00 1.496690000000000076e+01 6.084990000000000343e+00 8.616059999999999164e+00 1.150200000000000067e+01 5.822189999999999976e+00 8.675029999999999575e+00 2.417129999999999868e+01 6.060940000000000438e+00 1.717320000000000135e+01 1.175830000000000020e+01 6.165379999999999860e+00 1.715119999999999933e+01 2.379189999999999827e+01 1.539039999999999964e+01 9.210509999999999309e+00 1.116980000000000040e+01 1.512850000000000072e+01 8.844379999999999242e+00 2.427270000000000039e+01 1.495120000000000005e+01 2.230900000000000105e-01 1.072610000000000063e+01 1.501399999999999935e+01 1.717299999999999827e+01 2.397980000000000089e+01 6.990610000000000213e+00 4.248809999999999754e+00 2.719160000000000021e+00 7.278579999999999828e+00 4.609149999999999636e+00 1.654319999999999879e+01 6.646519999999999762e+00 1.315099999999999980e+01 3.723440000000000083e+00 6.782700000000000173e+00 1.327950000000000053e+01 1.624200000000000088e+01 1.515370000000000061e+01 4.003389999999999560e+00 3.779580000000000162e+00 1.601219999999999999e+01 4.372040000000000148e+00 1.630600000000000094e+01 1.543130000000000024e+01 1.318979999999999997e+01 3.786700000000000177e+00 1.626729999999999876e+01 1.358939999999999948e+01 1.650280000000000058e+01 6.608970000000000233e+00 8.609799999999999898e+00 7.502489999999999881e+00 6.972070000000000434e+00 8.801619999999999777e+00 2.040129999999999910e+01 7.501339999999999897e+00 3.632699999999999818e-01 8.002250000000000085e+00 7.642260000000000275e+00 1.742549999999999955e+01 2.065129999999999910e+01 1.524549999999999983e+01 8.849510000000000431e+00 7.249909999999999854e+00 1.596759999999999913e+01 8.706870000000000331e+00 2.017259999999999920e+01 1.605290000000000106e+01 1.649799999999999878e-01 7.716319999999999624e+00 1.601470000000000127e+01 1.360000000000000098e-03 2.029789999999999850e+01 6.846770000000000245e+00 4.264789999999999637e+00 7.719680000000000319e+00 6.509619999999999962e+00 4.673659999999999926e+00 2.060960000000000036e+01 7.185970000000000191e+00 1.320229999999999926e+01 7.631829999999999892e+00 7.213569999999999816e+00 1.378659999999999997e+01 2.034829999999999828e+01 1.552250000000000085e+01 4.060310000000000308e+00 7.740490000000000315e+00 1.609769999999999968e+01 4.179640000000000022e+00 1.975270000000000081e+01 1.561100000000000065e+01 1.281690000000000040e+01 7.980190000000000339e+00 1.558740000000000059e+01 1.303439999999999976e+01 2.066120000000000090e+01 8.765670000000000073e+00 2.160060000000000091e+00 5.783439999999999692e+00 8.173199999999999577e+00 1.889960000000000084e+00 1.815579999999999927e+01 8.268739999999999313e+00 1.029219999999999935e+01 5.404709999999999681e+00 8.566679999999999851e+00 1.092220000000000013e+01 1.831480000000000175e+01 1.743390000000000128e+01 1.588489999999999958e+00 5.168260000000000076e+00 1.277000000000000079e-01 1.808610000000000051e+00 1.773369999999999891e+01 1.717419999999999902e+01 1.007290000000000063e+01 5.105559999999999654e+00 1.701129999999999853e+01 1.032360000000000078e+01 1.744480000000000075e+01 8.486349999999999838e+00 6.015990000000000393e+00 1.004969999999999963e+01 8.537549999999999528e+00 6.298670000000000435e+00 2.300240000000000151e+01 8.826079999999999259e+00 1.494640000000000057e+01 1.011689999999999934e+01 9.233190000000000452e+00 1.509169999999999945e+01 2.308759999999999835e+01 5.819999999999999653e-03 6.058889999999999887e+00 9.949279999999999902e+00 4.265900000000000247e-01 5.794299999999999784e+00 2.254769999999999897e+01 2.364700000000000135e-01 1.510689999999999955e+01 1.000919999999999987e+01 1.742650000000000077e+01 1.428930000000000078e+01 2.298620000000000019e+01