2.071019999999999861e+00 6.119080000000000297e+00 9.245599999999999596e+00 1.679629999999999868e+01 4.604470000000000063e+00 2.471379999999999910e+01 1.674600000000000088e+00 1.532000000000000028e+01 3.442530000000000090e+00 5.983699999999999575e-01 1.182579999999999920e+01 2.457920000000000016e+01 1.075210000000000043e+01 6.323120000000000296e+00 7.845720000000000027e+00 6.538640000000000008e+00 9.575820000000000221e+00 5.463099999999999623e-01 9.030680000000000263e+00 1.725189999999999912e+01 9.521710000000000562e+00 4.657420000000000115e+00 1.312529999999999930e+01 1.505959999999999965e+01 1.744050000000000100e+00 2.012340000000000018e+00 8.873699999999999477e+00 1.678350000000000009e+01 1.700110000000000099e+01 2.230519999999999925e+01 4.486580000000000013e+00 8.474289999999999878e+00 6.811689999999999579e+00 1.886500000000000066e+00 1.063940000000000019e+01 2.217480000000000118e+01 1.576350000000000051e+01 1.683089999999999975e+00 8.505720000000000169e+00 1.565629999999999988e+01 2.252040000000000042e+00 2.788980000000000015e+00 1.306969999999999921e+01 9.161120000000000374e+00 1.267290000000000028e+01 1.102110000000000056e+01 1.061030000000000051e+01 6.843499999999999694e+00 2.174119999999999830e+00 1.180969999999999942e+01 8.459250000000000824e+00 1.498840000000000039e+01 1.158999999999999986e+01 9.761850000000000804e+00 1.323019999999999996e+01 1.685079999999999956e+01 9.271700000000000497e-01 2.319409999999999972e+00 1.529030000000000022e+01 9.992950000000000443e+00 8.440429999999999211e+00 8.887710000000000221e+00 9.309279999999999333e+00 1.102219999999999978e+01 6.264429999999999943e+00 2.250300000000000011e+01 1.031959999999999944e+01 1.529390000000000072e+01 2.462640000000000029e+01 1.570989999999999931e+01 1.508000000000000007e+01 1.569089999999999918e+01 3.826540000000000052e+00 1.735679999999999978e+01 6.580919999999999881e+00 1.734499999999999931e+00 1.936819999999999986e+00 2.107460000000000022e+01 2.368129999999999846e+00 1.136219999999999963e+01 1.468480000000000008e+00 2.153030000000000221e+00 1.088850000000000051e+01 1.864720000000000155e+01 8.658089999999999620e+00 4.182019999999999627e+00 5.650199999999999889e+00 6.249369999999999870e+00 1.062410000000000032e+01 2.333439999999999870e+01 1.519759999999999955e+01 6.403979999999999784e+00 5.352879999999999860e+00 9.429529999999999745e+00 1.263920000000000066e+01 1.159210000000000029e+01 6.595410000000000217e+00 1.649620000000000086e+00 8.381389999999999674e+00 1.741440000000000099e+00 1.548900000000000077e+01 6.217259999999999565e+00 2.250739999999999963e+00 6.417740000000000222e+00 1.480450000000000088e+01 1.479119999999999990e+01 1.079809999999999981e+01 1.759759999999999991e+01 1.087110000000000021e+01 2.375509999999999788e+00 8.717520000000000380e+00 1.294050000000000011e+01 4.173040000000000305e+00 2.187089999999999890e+01 2.371000000000000052e-01 8.811270000000000380e+00 9.563650000000000873e+00 1.128250000000000064e+01 6.571410000000000196e+00 1.922279999999999944e+01 1.735010000000000119e+01 9.675209999999999866e+00 1.483430000000000071e+01 2.189000000000000112e-01 1.262850000000000072e+01 1.803170000000000073e+01 6.523109999999999964e+00 1.535529999999999973e+01 1.019699999999999918e+01 6.874979999999999869e+00 1.548339999999999961e+01 1.582579999999999920e+01 6.033000000000000362e+00 6.090559999999999974e+00 2.512440000000000140e+01 8.981820000000000803e+00 8.589090000000000558e+00 2.200230000000000175e+01 8.974830000000000751e+00 2.993100000000000205e-01 2.731720000000000148e+00 6.275330000000000297e+00 1.520110000000000028e+01 2.295540000000000092e+01 1.551800000000000068e+01 2.839729999999999865e+00 5.463020000000000209e+00 1.706909999999999883e+01 9.601800000000000779e+00 2.177909999999999968e+01 2.059750000000000192e+00 1.002360000000000007e+01 5.440590000000000259e+00 2.696369999999999933e+00 1.500459999999999994e+01 1.511399999999999966e-01 1.034600000000000009e+01 1.046059999999999945e+01 3.311090000000000089e+00 8.566610000000000724e+00 4.406030000000000335e+00 1.191200000000000081e+01 1.040109999999999957e+01 1.111700000000000088e+01 2.125509999999999877e+01 1.067779999999999951e+01 1.485309999999999953e+01 1.537579999999999991e+01 4.864110000000000156e+00 5.652400000000000091e+00 2.813579999999999970e+00 1.822670000000000012e+00 2.437930000000000152e+00 1.203110000000000035e+01 6.182070000000000398e+00 1.487349999999999994e+01 2.435500000000000220e+00 1.508120000000000083e+01 1.434239999999999959e+01 1.038649999999999984e+01 1.048559999999999981e+01 6.856080000000000396e+00 2.770199999999999885e-01 1.059190000000000076e+01 1.409149999999999903e+00 1.282039999999999935e+01 1.263599999999999923e+01 8.672050000000000480e+00 5.917499999999999982e-01 1.128640000000000043e+01 1.475900000000000034e+01 9.795799999999999841e+00 5.901779999999999582e+00 6.664780000000000371e+00 1.886390000000000100e+01 7.913649999999999629e+00 7.350810000000000066e+00 2.789460000000000051e+00 6.764840000000000408e+00 1.097489999999999988e+01 3.178119999999999834e+00 8.658250000000000668e+00 1.310180000000000078e+01 2.424990000000000023e+01 1.156020000000000003e+01 6.458059999999999690e+00 1.272160000000000046e+01 1.029090000000000060e+01 2.013850000000000140e+00 3.302319999999999922e+00 1.473700000000000010e+01 1.057590000000000074e+01 6.799900000000000055e+00 3.820689999999999920e+00 8.502840000000000842e+00 1.939470000000000027e+01 2.046739999999999782e+00 8.420279999999999987e+00 3.421600000000000197e-01 1.526619999999999955e+01 7.167040000000000077e+00 1.296260000000000012e+01 3.286369999999999791e+00 4.220209999999999795e+00 2.136319999999999908e+01 6.376120000000000232e+00 2.307020000000000071e+00 1.230380000000000074e+01 1.490729999999999933e+01 1.137589999999999968e+01 2.273320000000000007e+01 1.095819999999999972e+01 6.680399999999999672e+00 1.662819999999999965e+01 1.080930000000000035e+01 1.521039999999999992e+01 3.405279999999999863e+00 1.526559999999999917e+01 2.304819999999999869e+00 1.225949999999999918e+01 5.980680000000000440e+00 7.033680000000000376e+00 4.692389999999999617e+00 6.832840000000000025e+00 1.059929999999999950e+01 1.583900000000000041e+01 3.108789999999999942e+00 1.720179999999999865e+01 1.331509999999999927e+01 1.894060000000000077e+00 1.355520000000000058e+00 3.176800000000000179e-01 1.260820000000000007e+01 4.287770000000000081e+00 3.735669999999999824e+00 1.222039999999999971e+01 1.340329999999999977e+01 2.154980000000000118e+01 1.284459999999999980e+01 1.735879999999999868e+01 6.679050000000000153e+00 1.516169999999999973e+01 1.518699999999999939e+01 2.017620000000000147e+01 6.277650000000000396e+00 2.428679999999999950e+00 1.587229999999999919e+01 6.074679999999999858e+00 2.526330000000000187e+00 2.234700000000000131e+01 6.286240000000000272e+00 1.110200000000000031e+01 1.189669999999999916e+01 1.673929999999999918e+00 6.887260000000000382e+00 2.030130000000000123e+01 1.365879999999999983e+00 6.463260000000000005e+00 1.190719999999999956e+01 1.528780000000000072e+01 1.912649999999999961e+00 2.156030000000000157e+01 1.499070000000000036e+01 1.112490000000000023e+01 3.963729999999999976e+00 1.517329999999999934e+01 1.576580000000000048e+01 4.470379999999999576e+00 1.802629999999999955e+00 6.555349999999999788e+00 3.266630000000000145e+00 5.502060000000000173e+00 1.338470000000000049e+00 1.925939999999999941e+01 8.979440000000000310e+00 8.526080000000000325e+00 1.494510000000000005e+01 1.339209999999999923e+01 3.640179999999999971e+00 1.504340000000000011e+01 1.541520000000000046e+01 1.600359999999999872e+01 8.228540000000000632e+00 1.523760000000000048e+01 2.527969999999999828e+00 1.761830000000000140e+01 1.270839999999999925e+01 8.118969999999999132e+00 6.915829999999999700e+00 1.469309999999999938e+01 1.153110000000000035e+01 1.382530000000000037e+01 6.927539999999999587e+00 6.322479999999999656e+00 1.286139999999999972e+01 1.042089999999999961e+01 1.101329999999999920e+01 1.743959999999999866e+01 6.850979999999999848e+00 1.765989999999999949e+00 4.301720000000000432e+00 1.311020000000000074e+01 1.346250000000000036e+01 1.526600000000000001e+01 1.730170000000000030e+01 8.064280000000000115e+00 2.796469999999999789e+00 4.475600000000000134e-01 4.840519999999999712e+00 1.810960000000000036e+01 1.725819999999999865e+01 1.296969999999999956e+01 5.304330000000000211e+00 2.004290000000000127e+00 2.241309999999999913e+00 1.493009999999999948e+01 8.313919999999999533e+00 3.868110000000000159e+00 2.443159999999999954e+01 1.375960000000000072e+01 1.638260000000000005e+01 1.311299999999999955e+01 6.212390000000000079e+00 1.055729999999999968e+01 1.924599999999999866e+01 6.383399999999999963e+00 1.502239999999999931e+01 1.891079999999999828e+01 1.542869999999999919e+01 9.934760000000000701e+00 8.252899999999999681e-01 1.530579999999999963e+01 6.998800000000000132e+00 1.607900000000000063e+01 1.510899999999999999e+01 1.443979999999999997e+01 1.526410000000000045e+00 6.727899999999999991e-01 1.313879999999999981e+01 1.195960000000000001e+01 4.934379999999999988e+00 4.102829999999999977e+00 9.518670000000000186e+00 5.728620000000000267e+00 1.197659999999999947e+00 2.539600000000000191e-01 6.092819999999999681e+00 1.105010000000000048e+01 7.496229999999999727e+00 5.081839999999999691e+00 8.771340000000000359e+00 1.349789999999999957e+01 1.480630000000000024e+01 6.451399999999999579e+00 1.773239999999999927e+00 8.567589999999999151e+00 4.624039999999999928e+00 1.830030000000000001e+01 1.308280000000000065e+01 1.256930000000000014e+01 2.997790000000000177e+00 1.332760000000000034e+01 1.001539999999999964e+01 1.958210000000000051e+01 1.734930000000000083e+00 1.776370000000000005e+00 1.792530000000000001e+01 3.659180000000000099e+00 1.285060000000000002e+01 2.157700000000000173e+01 1.047480000000000011e+01 1.556300000000000061e+01 2.119600000000000151e+01 1.119529999999999959e+01 2.078440000000000065e+00 2.283899999999999864e+01 6.050270000000000259e+00 1.550839999999999996e+01 6.657750000000000057e+00 1.460820000000000007e+01 6.637419999999999654e+00 1.975230000000000175e+01 1.117900000000000027e+01 1.069420000000000037e+01 9.662789999999999324e+00 1.948649999999999993e+00 1.500050000000000061e+01 2.105870000000000175e+01 6.724759999999999849e+00 6.279880000000000351e+00 9.534539999999999793e+00 6.110769999999999591e+00 6.348259999999999792e+00 2.233370000000000033e+01 8.666550000000000864e+00 1.242409999999999926e+01 5.846940000000000026e+00 5.233229999999999826e+00 1.304390000000000072e+01 9.343719999999999359e+00 1.529359999999999964e+01 6.327549999999999564e+00 8.718750000000000000e+00 1.519699999999999918e+01 1.897950000000000026e+00 2.411820000000000164e+01 1.155049999999999910e+00 3.109350000000000058e+00 5.650479999999999947e+00 1.664590000000000014e+00 6.193889999999999674e+00 2.413190000000000168e+01 1.091840000000000011e+01 6.598659999999999748e+00 4.270570000000000199e+00 8.162229999999999208e+00 2.138490000000000002e+00 2.015850000000000009e+01 1.101890000000000036e+01 1.494369999999999976e+01 6.048420000000000130e+00 8.412990000000000634e+00 1.251409999999999911e+01 1.835930000000000106e+01 2.558530000000000193e+00 2.504389999999999894e+00 3.137280000000000069e+00 1.300730000000000075e+01 3.384199999999999986e-01 1.961730000000000018e+01 1.327590000000000003e+01 4.021729999999999805e+00 9.106479999999999464e+00 1.743360000000000021e+00 1.501120000000000054e+01 1.606660000000000110e+01 1.152389999999999937e+01 2.052400000000000002e+00 1.519679999999999964e+01 1.101079999999999970e+01 2.154030000000000111e+00 4.581899999999999862e-01 1.091610000000000014e+01 1.624780000000000157e+01 1.807770000000000010e+01 1.103940000000000055e+01 1.076759999999999984e+01 2.423580000000000112e+01 4.743350000000000399e+00 4.725979999999999848e+00 1.567309999999999981e+01 1.541060000000000052e+01 6.590189999999999770e+00 2.330030000000000001e+01 2.412959999999999994e+00 1.073279999999999923e+01 1.218660000000000032e+01 4.381210000000000271e+00 1.193640000000000079e+01 3.374940000000000051e+00 4.356300000000000061e+00 8.713860000000000383e+00 1.030209999999999937e+01 3.984100000000000197e+00 8.553509999999999280e+00 2.236789999999999878e+01 4.515909999999999869e+00 3.781700000000000061e-01 1.012139999999999951e+01 1.317350000000000065e+01 8.439959999999999241e+00 1.009629999999999939e+01 1.313509999999999955e+01 8.493869999999999365e+00 2.261599999999999966e+01 1.296380000000000088e+01 1.716929999999999978e+01 2.293220000000000169e+01 8.356389999999999318e+00 4.304160000000000430e+00 2.130180000000000184e+00 8.567320000000000491e+00 1.297359999999999935e+01 2.527439999999999909e+00 1.730770000000000053e+01 4.357510000000000439e+00 2.061869999999999870e+00 1.779999999999999898e-03 1.319369999999999976e+01 2.225169999999999870e+00 1.117199999999999999e-01 1.321209999999999951e+01 8.663050000000000139e+00 8.900600000000000733e+00 4.440459999999999852e+00 2.108129999999999882e+01 8.371760000000000090e+00 1.303850000000000087e+01 2.129700000000000060e+01 4.000219999999999665e+00 8.591900000000000759e+00 3.545990000000000197e+00 1.273189999999999955e+01 8.515420000000000655e+00 3.688889999999999780e+00 1.324089999999999989e+01 8.712749999999999773e+00 1.659990000000000165e+01 4.030100000000000016e+00 1.716199999999999903e+01 2.236880000000000024e+01 1.304759999999999920e+01 1.733970000000000056e+01 1.014179999999999993e+01 8.997640000000000526e+00 4.213490000000000180e+00 1.474970000000000070e+01 8.612920000000000798e+00 1.279809999999999981e+01 1.513530000000000086e+01 1.712209999999999965e+01 4.076299999999999812e+00 1.464380000000000059e+01 2.876799999999999913e-01 1.283549999999999969e+01 1.491210000000000058e+01 1.721389999999999887e+01 4.205630000000000202e+00 9.125329999999999941e+00 1.715889999999999915e+01 4.110229999999999606e+00 2.108439999999999870e+01 1.732450000000000045e+01 1.310720000000000063e+01 2.099429999999999907e+01 8.684870000000000090e+00 4.300670000000000215e+00 8.829860000000000042e+00 8.916959999999999553e+00 1.291999999999999993e+01 8.794639999999999347e+00 4.122729999999999784e+00 3.455400000000000138e-01 3.687190000000000190e+00 4.237160000000000259e+00 1.736070000000000135e+01 1.638830000000000098e+01 4.380080000000000418e+00 8.563779999999999504e+00 1.642350000000000065e+01 1.266840000000000011e+01 1.726780000000000115e+01 3.758039999999999825e+00 1.340850000000000009e+01 1.727240000000000109e+01 1.606510000000000105e+01 4.263860000000000205e+00 4.264730000000000132e+00 1.283389999999999986e+01 3.818109999999999893e+00 4.239910000000000068e+00 2.491000000000000014e+01 4.481209999999999916e+00 1.311219999999999963e+01 1.233849999999999980e+01 4.461070000000000313e+00 1.247039999999999971e+01 1.328000000000000014e-01 1.325459999999999994e+01 3.932240000000000180e+00 1.199160000000000004e+01 1.313850000000000051e+01 4.303449999999999775e+00 2.488960000000000150e+01 1.295819999999999972e+01 1.285720000000000063e+01 1.247320000000000029e+01 1.264789999999999992e+01 1.285859999999999914e+01 2.505679999999999907e+01 8.555180000000000007e+00 8.469969999999999999e+00 6.309580000000000410e+00 8.425200000000000244e+00 8.397500000000000853e+00 1.915020000000000167e+01 9.096140000000000114e+00 9.132999999999999452e-02 6.066010000000000346e+00 8.773709999999999454e+00 1.736070000000000135e+01 1.860419999999999874e+01 1.728810000000000002e+01 8.632319999999999993e+00 6.339070000000000427e+00 1.720270000000000010e+01 9.063109999999999999e+00 1.880039999999999978e+01 1.716059999999999874e+01 2.532099999999999906e-01 5.735310000000000130e+00 3.309999999999999748e-02 1.733149999999999835e+01 1.852149999999999963e+01 1.736710000000000065e+01 6.325099999999999945e+00 9.422800000000000065e-01 1.738419999999999987e+01 6.209459999999999980e+00 1.411369999999999969e+01 2.157999999999999918e-01 1.505910000000000082e+01 9.376700000000000035e-01 2.556300000000000239e-01 1.480990000000000073e+01 1.414710000000000001e+01 8.046939999999999316e+00 6.057900000000000063e+00 8.253899999999999570e-01 9.051610000000000156e+00 5.988000000000000433e+00 1.367530000000000001e+01 8.864910000000000068e+00 1.496560000000000024e+01 1.487090000000000023e+00 8.806259999999999977e+00 1.436309999999999931e+01 1.384670000000000023e+01 7.020000000000000198e-03 2.366490000000000204e+00 1.021979999999999933e+01 8.737000000000000322e-02 2.590300000000000047e+00 2.247729999999999961e+01 1.998099999999999876e-01 1.137129999999999974e+01 9.956879999999999953e+00 7.470000000000000077e-03 1.160110000000000063e+01 2.251330000000000098e+01 8.456060000000000798e+00 2.479470000000000063e+00 9.650109999999999744e+00 8.493290000000000006e+00 2.617430000000000145e+00 2.253760000000000119e+01 8.645550000000000068e+00 1.121819999999999951e+01 9.785519999999999996e+00 8.444229999999999237e+00 1.118919999999999959e+01 2.250069999999999837e+01 2.827399999999999913e-01 7.275929999999999787e+00 5.079130000000000145e+00 1.738579999999999970e+01 7.258070000000000022e+00 1.786769999999999925e+01 1.721099999999999852e+01 1.569640000000000057e+01 4.765419999999999767e+00 1.694640000000000057e+01 1.553389999999999915e+01 1.747429999999999950e+01 8.830870000000000886e+00 7.022759999999999891e+00 5.102970000000000006e+00 8.413959999999999440e+00 6.776980000000000004e+00 1.786380000000000123e+01 8.839000000000000412e+00 1.586209999999999987e+01 4.799970000000000070e+00 8.886100000000000776e+00 1.528850000000000087e+01 1.763070000000000093e+01 1.680809999999999960e+01 2.617340000000000000e+00 6.900199999999999667e-01 1.698160000000000025e+01 2.343129999999999935e+00 1.350339999999999918e+01 2.242200000000000026e-01 1.107869999999999955e+01 1.288669999999999982e+00 5.265800000000000480e-01 1.133280000000000065e+01 1.365900000000000070e+01 8.613070000000000448e+00 2.233509999999999884e+00 1.181510000000000060e+00 8.659119999999999706e+00 2.644930000000000003e+00 1.357060000000000066e+01 8.598280000000000811e+00 1.141039999999999921e+01 1.055409999999999959e+00 8.776040000000000063e+00 1.111940000000000062e+01 1.406540000000000035e+01 1.516529999999999934e+00 8.691010000000000346e+00 7.649289999999999701e+00 1.281619999999999981e+00 9.286519999999999442e+00 2.018420000000000059e+01 1.352459999999999996e+00 2.041499999999999981e-01 7.035569999999999879e+00 1.901620000000000088e+00 1.721940000000000026e+01 1.943469999999999942e+01 1.008189999999999920e+01 8.571640000000000370e+00 7.599339999999999762e+00 1.021969999999999956e+01 8.634809999999999874e+00 2.005949999999999989e+01 1.062320000000000064e+01 1.733050000000000068e+01 7.385349999999999859e+00 1.036059999999999981e+01 4.533400000000000207e-01 2.001340000000000074e+01 1.571539999999999937e+00 4.443539999999999601e+00 3.525199999999999889e+00 1.288070000000000048e+00 3.676849999999999952e+00 1.615099999999999980e+01 1.652919999999999945e+00 1.285870000000000068e+01 3.700210000000000221e+00 1.877180000000000071e+00 1.255209999999999937e+01 1.625300000000000011e+01 1.038930000000000042e+01 4.449440000000000062e+00 2.986779999999999990e+00 1.083249999999999957e+01 4.252100000000000435e+00 1.584950000000000081e+01 1.034089999999999954e+01 1.286560000000000059e+01 4.049409999999999954e+00 1.007390000000000008e+01 1.308869999999999933e+01 1.661499999999999844e+01 1.617979999999999974e+00 4.263729999999999798e+00 8.091200000000000614e+00 1.434600000000000097e+00 3.972620000000000040e+00 1.997329999999999828e+01 1.572980000000000045e+00 1.330460000000000065e+01 7.073269999999999946e+00 1.893760000000000110e+00 1.301319999999999943e+01 1.974680000000000035e+01 1.021260000000000012e+01 4.198730000000000295e+00 7.419439999999999813e+00 1.057349999999999923e+01 3.929809999999999803e+00 1.989610000000000056e+01 1.081739999999999924e+01 1.288899999999999935e+01 7.949110000000000120e+00 1.019549999999999912e+01 1.315390000000000015e+01 2.004429999999999978e+01 2.274280000000000079e+00 8.559950000000000614e+00 1.123259999999999970e+01 1.973200000000000065e+00 8.513230000000000075e+00 2.325600000000000023e+01 2.615149999999999864e+00 4.613800000000000123e-01 1.116389999999999993e+01 2.360850000000000115e+00 1.732469999999999999e+01 2.347279999999999944e+01 1.146780000000000044e+01 8.323280000000000456e+00 1.108789999999999942e+01 1.126960000000000051e+01 8.351919999999999789e+00 2.385709999999999908e+01 1.114359999999999928e+01 1.724919999999999831e+01 1.102439999999999998e+01 1.085679999999999978e+01 9.285999999999999810e-02 2.388929999999999865e+01 2.304679999999999840e+00 6.106000000000000316e-02 2.660880000000000134e+00 2.293070000000000164e+00 1.707369999999999877e+01 1.544270000000000032e+01 2.077760000000000051e+00 9.097500000000000142e+00 2.679590000000000138e+00 2.731650000000000134e+00 8.910080000000000666e+00 1.496369999999999933e+01 1.155869999999999997e+01 1.730659999999999954e+01 2.097510000000000208e+00 1.181540000000000035e+01 1.720949999999999847e+01 1.480030000000000001e+01 1.087020000000000053e+01 8.370609999999999218e+00 2.304520000000000124e+00 1.158060000000000045e+01 8.016690000000000538e+00 1.510069999999999979e+01 2.581580000000000208e+00 4.420329999999999870e+00 1.167639999999999922e+01 2.158520000000000216e+00 4.141130000000000422e+00 2.377749999999999986e+01 3.239129999999999843e+00 1.292370000000000019e+01 1.089279999999999937e+01 2.702230000000000132e+00 1.243800000000000061e+01 2.423669999999999902e+01 1.154509999999999970e+01 4.214520000000000266e+00 1.096570000000000000e+01 1.115160000000000018e+01 4.092690000000000161e+00 2.411240000000000094e+01 1.495209999999999972e+01 1.301140000000000008e+01 1.210159999999999947e+01 1.109099999999999930e+01 1.310859999999999914e+01 2.372879999999999967e+01 3.642370000000000108e+00 6.787379999999999747e+00 4.724700000000000344e+00 4.053829999999999600e+00 6.740649999999999586e+00 1.733310000000000173e+01 4.259079999999999977e+00 1.590070000000000050e+01 4.900050000000000239e+00 4.055060000000000109e+00 1.590220000000000056e+01 1.780039999999999978e+01 1.290130000000000088e+01 6.866089999999999804e+00 5.161859999999999893e+00 1.315269999999999939e+01 6.830580000000000318e+00 1.786430000000000007e+01 1.309970000000000034e+01 1.549590000000000067e+01 4.870510000000000339e+00 1.321909999999999918e+01 1.565440000000000076e+01 1.721130000000000138e+01 3.627759999999999874e+00 2.704930000000000057e+00 8.144099999999999673e-01 4.117490000000000094e+00 2.857499999999999929e+00 1.423840000000000039e+01 4.715440000000000076e+00 1.095819999999999972e+01 1.411289999999999933e+00 4.393200000000000216e+00 1.146129999999999960e+01 1.334529999999999994e+01 1.327820000000000000e+01 2.851640000000000175e+00 9.834399999999999809e-01 1.301219999999999999e+01 2.296180000000000110e+00 1.318290000000000006e+01 1.226820000000000022e+01 1.108200000000000074e+01 9.715300000000000047e-01 1.261739999999999995e+01 1.146860000000000035e+01 1.393520000000000003e+01 4.720390000000000086e+00 7.041220000000000034e+00 8.728229999999999933e+00 4.012349999999999639e+00 6.717249999999999943e+00 2.103920000000000101e+01 4.602319999999999744e+00 1.577110000000000056e+01 8.898740000000000094e+00 4.319919999999999760e+00 1.529879999999999995e+01 2.165990000000000038e+01 1.322760000000000069e+01 6.825599999999999667e+00 8.676550000000000651e+00 1.293140000000000001e+01 6.977400000000000269e+00 2.122759999999999891e+01 1.319589999999999996e+01 1.554379999999999917e+01 8.747640000000000526e+00 1.307789999999999964e+01 1.548910000000000053e+01 2.148479999999999990e+01 3.930340000000000167e+00 6.098819999999999908e+00 6.787699999999999845e-01 4.480669999999999931e+00 6.179149999999999920e+00 1.374499999999999922e+01 4.194899999999999629e+00 1.428100000000000058e+01 1.366579999999999906e+00 4.477360000000000007e+00 1.479449999999999932e+01 1.337560000000000038e+01 1.274050000000000082e+01 6.059549999999999770e+00 4.024099999999999899e-01 1.340070000000000050e+01 5.541070000000000384e+00 1.345390000000000086e+01 1.256910000000000061e+01 1.436650000000000027e+01 1.125080000000000080e+00 1.178079999999999927e+01 1.274900000000000055e+01 1.080519999999999925e+01 4.122609999999999886e+00 1.961810000000000054e+00 4.887480000000000047e+00 4.363249999999999851e+00 2.048189999999999955e+00 1.755310000000000059e+01 4.236740000000000173e+00 1.016999999999999993e+01 5.144420000000000215e+00 4.105010000000000048e+00 1.007119999999999926e+01 1.772319999999999851e+01 1.261100000000000065e+01 1.448409999999999975e+00 5.007799999999999585e+00 1.333559999999999945e+01 1.446360000000000090e+00 1.725059999999999860e+01 1.300639999999999930e+01 1.050360000000000049e+01 4.839949999999999974e+00 1.271840000000000082e+01 1.071899999999999942e+01 1.772619999999999862e+01 3.957590000000000163e+00 2.177350000000000119e+00 8.747339999999999449e+00 4.065419999999999590e+00 1.479889999999999928e+00 2.114740000000000109e+01 4.237180000000000391e+00 1.074039999999999928e+01 8.775169999999999249e+00 4.301330000000000098e+00 1.049629999999999974e+01 2.107900000000000063e+01 1.322710000000000008e+01 1.440989999999999993e+00 8.771319999999999339e+00 1.320550000000000068e+01 1.656360000000000054e+00 2.181739999999999924e+01 1.306559999999999988e+01 1.021819999999999951e+01 8.454679999999999751e+00 1.269379999999999953e+01 1.055439999999999934e+01 2.159969999999999857e+01 5.764260000000000161e+00 4.359919999999999796e+00 1.137270000000000003e+01 5.488039999999999807e+00 4.364020000000000010e+00 2.340210000000000079e+01 6.219359999999999999e+00 1.320599999999999952e+01 1.150389999999999979e+01 5.973989999999999689e+00 1.276590000000000025e+01 2.391900000000000048e+01 1.470710000000000051e+01 4.006949999999999790e+00 1.084699999999999953e+01 1.454100000000000037e+01 4.510419999999999874e+00 2.356899999999999906e+01 1.243529999999999980e+01 1.464639999999999986e+01 1.353079999999999927e+01 1.470659999999999989e+01 1.317609999999999992e+01 2.437669999999999959e+01 5.945660000000000167e+00 1.736049999999999827e+01 2.930559999999999832e+00 5.885309999999999597e+00 3.178000000000000269e-02 1.500639999999999930e+01 5.692879999999999718e+00 8.216430000000000788e+00 2.288600000000000190e+00 6.211380000000000123e+00 8.393860000000000099e+00 1.551720000000000077e+01 1.458719999999999928e+01 2.554100000000000259e-01 2.660860000000000003e+00 1.520880000000000010e+01 1.731940000000000168e+01 1.511009999999999920e+01 1.455020000000000024e+01 8.660729999999999151e+00 2.533659999999999801e+00 1.501140000000000008e+01 9.103920000000000456e+00 1.514680000000000071e+01 6.447759999999999714e+00 8.458560000000000301e+00 1.123269999999999946e+01 5.841859999999999609e+00 8.313100000000000378e+00 2.388029999999999831e+01 6.620280000000000165e+00 3.906299999999999772e-01 1.119469999999999921e+01 5.741229999999999833e+00 3.527500000000000080e-01 2.353130000000000166e+01 1.481509999999999927e+01 9.072910000000000252e+00 1.140409999999999968e+01 1.509689999999999976e+01 9.055279999999999774e+00 2.372609999999999886e+01 1.462509999999999977e+01 2.009299999999999975e-01 1.124670000000000059e+01 1.470679999999999943e+01 1.682799999999999940e+01 2.442429999999999879e+01 6.665829999999999700e+00 4.274040000000000283e+00 3.707230000000000025e+00 7.497040000000000148e+00 4.256509999999999572e+00 1.605290000000000106e+01 6.873649999999999594e+00 1.339259999999999984e+01 4.056930000000000369e+00 6.687520000000000131e+00 1.289070000000000071e+01 1.607819999999999894e+01 1.519619999999999926e+01 4.998730000000000118e+00 3.505119999999999791e+00 1.570609999999999928e+01 4.307470000000000354e+00 1.602370000000000161e+01 1.549080000000000013e+01 1.345049999999999990e+01 3.739079999999999959e+00 1.570439999999999969e+01 1.234169999999999945e+01 1.571649999999999991e+01 6.920919999999999739e+00 8.486679999999999779e+00 7.314650000000000318e+00 6.801050000000000040e+00 8.239819999999999922e+00 2.024680000000000035e+01 7.270570000000000199e+00 9.711000000000000187e-02 7.009850000000000136e+00 7.279209999999999958e+00 1.712170000000000059e+01 2.008040000000000092e+01 1.567709999999999937e+01 8.130530000000000257e+00 7.370759999999999756e+00 1.550520000000000032e+01 9.178860000000000241e+00 1.994440000000000168e+01 1.525719999999999921e+01 2.712700000000000111e-01 6.409650000000000070e+00 1.583109999999999928e+01 1.737020000000000053e+01 1.993280000000000030e+01 7.049050000000000260e+00 4.757450000000000401e+00 7.798670000000000435e+00 6.751900000000000013e+00 4.625370000000000203e+00 2.000560000000000116e+01 7.248649999999999594e+00 1.341140000000000043e+01 7.674680000000000391e+00 6.790899999999999714e+00 1.325810000000000066e+01 1.999370000000000047e+01 1.569640000000000057e+01 3.915109999999999868e+00 7.650570000000000093e+00 1.549729999999999919e+01 4.001839999999999620e+00 1.968609999999999971e+01 1.536330000000000062e+01 1.353369999999999962e+01 7.659080000000000332e+00 1.588630000000000031e+01 1.245470000000000077e+01 1.983070000000000022e+01 9.077700000000000102e+00 1.880330000000000057e+00 5.179299999999999571e+00 8.394679999999999254e+00 1.465149999999999952e+00 1.729769999999999897e+01 8.678250000000000242e+00 1.023520000000000074e+01 5.097290000000000099e+00 8.476359999999999673e+00 1.029570000000000007e+01 1.812470000000000070e+01 1.714549999999999841e+01 1.815720000000000001e+00 4.370549999999999713e+00 1.706779999999999831e+01 1.474939999999999918e+00 1.735320000000000107e+01 1.688050000000000139e+01 1.051989999999999981e+01 5.636840000000000295e+00 3.935000000000000303e-02 1.047409999999999997e+01 1.717200000000000060e+01 8.888659999999999783e+00 6.050019999999999953e+00 9.952400000000000801e+00 8.761219999999999786e+00 6.257439999999999891e+00 2.242670000000000030e+01 8.904519999999999769e+00 1.450120000000000076e+01 1.027030000000000065e+01 8.754110000000000724e+00 1.483549999999999969e+01 2.253369999999999962e+01 1.711599999999999966e+01 5.874660000000000437e+00 1.013599999999999923e+01 1.731439999999999912e+01 5.984409999999999563e+00 2.188139999999999930e+01 1.722530000000000072e+01 1.501350000000000051e+01 1.014010000000000034e+01 1.717800000000000082e+01 1.469800000000000040e+01 2.219079999999999941e+01