-1.663310095110000020e+03
-1.658276846539999951e+03
-1.664669673009999997e+03
-1.663720715039999959e+03
-1.663232174729999997e+03
-1.661656054349999977e+03
-1.663619334879999997e+03
-1.659357609370000091e+03
-1.661711052480000035e+03
-1.659086208169999964e+03
-1.665549716870000111e+03
-1.664141813709999951e+03
-1.661026929099999961e+03
-1.661179536979999966e+03
-1.658245973670000012e+03
-1.658491155319999962e+03
-1.667996232689999943e+03
-1.661836960580000095e+03
-1.677018917209999927e+03
-1.664157217420000052e+03
-1.663990044579999903e+03
-1.664915277229999901e+03
-1.659366849250000087e+03
-1.660836589069999945e+03
-1.662877515189999940e+03
-1.662652507909999940e+03
-1.661181081460000087e+03
-1.656792895970000018e+03
-1.660715269309999940e+03
-1.665302989029999935e+03
-1.665727960359999997e+03
-1.664015079360000072e+03
-1.654581309550000014e+03
-1.658962792560000025e+03
-1.668453200630000083e+03
-1.658221873189999997e+03
-1.663274653810000018e+03
-1.657561368220000077e+03
-1.660207082299999911e+03
-1.662595452329999944e+03
-1.658130058830000053e+03
-1.662785013449999951e+03
-1.657073164700000007e+03
-1.665993378269999994e+03
-1.665043840170000067e+03
-1.658344711640000014e+03
-1.664565493249999918e+03
-1.663584301630000027e+03
-1.660641648790000090e+03
-1.661514433770000096e+03
-1.661790619569999990e+03
-1.664384374770000022e+03
-1.659237256469999920e+03
-1.665062691050000012e+03
-1.661713156880000042e+03
-1.656848789520000082e+03
-1.661654707870000038e+03
-1.664182704049999984e+03
-1.659742438490000040e+03
-1.661180867810000109e+03
-1.658497849289999976e+03
-1.660750834129999930e+03
-1.662106876260000035e+03
-1.663877534790000027e+03
-1.659829325720000043e+03
-1.667185954439999932e+03
-1.663963343229999964e+03
-1.662126701639999965e+03
-1.664552482909999981e+03
-1.661287162390000049e+03
-1.664637149859999909e+03
-1.662194904140000062e+03
-1.662907197409999981e+03
-1.663427538469999945e+03
-1.664455032690000053e+03
-1.661181176229999892e+03
-1.681053319879999890e+03
-1.663111166090000097e+03
-1.662768101590000015e+03
-1.657395248560000027e+03
-1.665165219770000022e+03
-1.665519851880000033e+03
-1.663954086089999919e+03
-1.660019171240000105e+03
-1.660534069159999945e+03
-1.659595085749999953e+03
-1.656283470939999916e+03
-1.658559126890000016e+03
-1.656737502480000103e+03
-1.662351515820000031e+03
-1.654344418650000080e+03
-1.665519767880000018e+03
-1.656411113110000088e+03
-1.661638460030000033e+03
-1.663588090570000077e+03
-1.653841321160000007e+03
-1.666018079169999965e+03
-1.659593913899999961e+03
-1.663756610110000111e+03
-1.660866189050000003e+03
-1.658262833649999948e+03
-1.664760089119999975e+03
-1.661043946179999921e+03
-1.663600913969999965e+03
-1.659529926489999980e+03
-1.661411159150000003e+03
-1.658922554470000023e+03
-1.658932271050000054e+03
-1.666178144010000096e+03
-1.661414977169999929e+03
-1.666152383769999915e+03
-1.660785172630000034e+03
-1.662517344059999914e+03
-1.662594262789999902e+03
-1.664165238770000087e+03
-1.661893780010000000e+03
-1.655929386179999938e+03
-1.662272667120000051e+03
-1.660801277110000001e+03
-1.659687787710000066e+03
-1.656353682209999988e+03
-1.660903075680000029e+03
-1.661610437640000100e+03
-1.658840308470000082e+03
-1.664832427750000079e+03
-1.660473027839999986e+03
-1.663281513749999931e+03
-1.664735550410000087e+03
-1.664686584380000113e+03
-1.662760591729999987e+03
-1.654795444330000009e+03
-1.664258616769999890e+03
-1.661320895959999916e+03
