5.907029999999999781e-01 1.926740000000000119e-01 2.046459999999999946e-01 -1.493210000000000093e-01 -1.641859999999999986e-01 -1.021569999999999978e-01 -3.462520000000000042e-01 -1.078279999999999933e-01 1.185739999999999988e-01 -8.599000000000000740e-03 1.513309999999999933e-01 4.589599999999999930e-02 -5.421240000000000503e-01 3.957720000000000127e-01 -1.255989999999999884e-01 1.231651999999999969e+00 5.921290000000000164e-01 -6.247639999999999860e-01 1.732315999999999967e+00 8.566610000000000058e-01 -3.526239999999999930e-01 -5.710509999999999753e-01 -1.519570000000000087e-01 5.697240000000000082e-01 -1.569720000000000004e-01 8.651060000000000416e-01 4.415999999999999925e-01 2.226099999999999954e-02 -2.242409999999999959e-01 -1.202099999999999974e-01 -9.967150000000000176e-01 -1.140359999999999985e-01 -7.541520000000000445e-01 8.179799999999999571e-02 -5.375879999999999548e-01 -4.825800000000000090e-01 -2.769119999999999915e-01 -3.205500000000000016e-02 -2.819800000000000084e-02 6.550960000000000116e-01 -5.783599999999999852e-02 -1.770289999999999919e-01 4.262799999999999923e-01 -3.369300000000000073e-01 -4.949870000000000103e-01 -1.040989999999999971e-01 -3.444820000000000104e-01 -1.287959999999999938e-01 1.194500000000000076e-02 -9.781830000000000247e-01 -2.697990000000000110e-01 6.549900000000000166e-02 -5.044220000000000370e-01 2.759860000000000091e-01 1.112451000000000079e+00 -7.781599999999999628e-02 1.362530999999999937e+00 -3.385480000000000156e-01 3.265009999999999857e-01 2.079509999999999970e-01 3.354010000000000047e-01 1.008097000000000021e+00 -2.708079999999999932e-01 1.660439999999999972e-01 -4.762399999999999967e-02 -1.773210000000000064e-01 3.712159999999999904e-01 1.337480000000000058e-01 -5.573299999999999782e-02 5.748899999999999844e-02 6.201240000000000085e-01 -1.687589999999999923e-01 -3.194020000000000192e-01 2.512700000000000003e-02 -2.826800000000000146e-02 -9.893799999999999817e-02 -7.561500000000000166e-02 -1.633120000000000127e-01 -2.921540000000000248e-01 3.706130000000000257e-01 1.796919999999999906e-01 -3.301339999999999830e-01 1.713050000000000128e-01 -2.371799999999999950e-02 3.411299999999999888e-01 4.486550000000000260e-01 -3.444840000000000124e-01 3.182019999999999849e-01 -3.512799999999999950e-02 -3.098000000000000198e-01 -3.239299999999999818e-02 -4.831110000000000126e-01 -9.985700000000000132e-02 1.977559999999999873e-01 3.388590000000000213e-01 1.033730000000000065e-01 1.198189999999999950e-01 -1.865239999999999954e-01 1.725260000000000127e-01 7.271210000000000173e-01 -3.676110000000000211e-01 -1.231690000000000007e-01 1.230919999999999931e-01 4.572280000000000233e-01 3.663259999999999850e-01 9.548600000000000143e-02 2.245419999999999916e-01 -2.073300000000000143e-02 -4.432329999999999881e-01 -1.240559999999999996e-01 -1.735700000000000021e-01 8.900399999999999978e-02 -1.558900000000000043e-02 -2.273870000000000058e-01 1.628469999999999918e-01 -5.854979999999999629e-01 -2.598159999999999914e-01 1.873620000000000008e-01 3.190609999999999835e-01 -3.253039999999999821e-01 -3.003629999999999911e-01 1.359209999999999863e-01 -6.400000000000000133e-02 1.582369999999999888e-01 4.066540000000000155e-01 -2.770509999999999917e-01 6.770600000000000229e-02 5.275250000000000217e-01 -1.412249999999999894e-01 6.701049999999999507e-01 6.465750000000000108e-01 -4.477530000000000121e-01 7.952439999999999509e-01 8.074139999999999651e-01 4.102160000000000251e-01 5.967069999999999874e-01 -2.252790000000000070e-01 3.679810000000000025e-01 1.187200000000000061e-01 2.024930000000000063e-01 -2.476780000000000093e-01 -1.064289999999999958e-01 1.938380000000000103e-01 -1.095890000000000059e-01 2.736620000000000164e-01 2.597419999999999729e-01 -2.600529999999999786e-01 -2.893000000000000085e-02 1.469320000000000070e-01 -6.613769999999999927e-01 3.098009999999999931e-01 5.058780000000000499e-01 -4.715320000000000067e-01 2.436250000000000082e-01 5.244200000000000250e-02 -1.349309999999999954e-01 -1.200650000000000051e-01 -2.377800000000000052e-02 4.259060000000000068e-01 -2.274130000000000040e-01 -1.949549999999999894e-01 -3.388970000000000038e-01 -6.662099999999999689e-01 2.635692999999999842e+00 1.054864999999999942e+00 3.684609999999999830e-01 -1.786770000000000025e-01 -1.778430000000000011e-01 -2.403730000000000033e-01 1.071056999999999926e+00 6.082640000000000269e-01 1.519555999999999907e+00 -1.796640999999999933e+00 -6.004000000000000448e-01 -1.771899999999999864e-02 1.629950000000000010e-01 -1.484350000000000114e-01 -5.451099999999999696e-02 -4.369830000000000103e-01 4.373500000000000165e-01 -2.495229999999999948e-01 9.572159999999999558e-01 1.996090000000000086e-01 -4.114399999999999724e-01 -4.843430000000000235e-01 -4.537840000000000207e-01 -3.219920000000000004e-01 -5.283830000000000471e-01 2.127499999999999947e-01 2.050829999999999875e-01 5.935629999999999518e-01 -2.375279999999999891e-01 2.352009999999999934e-01 3.638299999999999867e-02 -2.910999999999999959e-03 -2.182640000000000136e-01 -3.661039999999999850e-01 -4.635000000000000231e-03 1.431399999999999895e-01 5.228239999999999554e-01 2.447449999999999903e-01 3.017940000000000067e-01 -3.533100000000000129e-02 2.727510000000000212e-01 1.507229999999999959e-01 -3.421589999999999909e-01 5.256589999999999874e-01 4.683500000000000163e-02 -5.658400000000000235e-02 -1.710899999999999921e-02 3.064649999999999874e-01 5.928930000000000033e-01 4.976490000000000080e-01 1.245199999999999953e-02 2.116900000000000032e-02 -3.956359999999999877e-01 -1.029810000000000031e-01 -1.162139999999999979e-01 -6.974040000000000239e-01 1.502099999999999963e-02 -4.466240000000000210e-01 2.781830000000000136e-01 -3.482779999999999765e-01 3.469450000000000034e-01 -4.062259999999999760e-01 -4.109820000000000140e-01 -1.166060000000000013e-01 8.100420000000000398e-01 2.501120000000000010e-01 5.823589999999999600e-01 6.164500000000000535e-01 -5.643270000000000231e-01 4.601199999999999735e-02 4.972750000000000226e-01 -5.093600000000000350e-01 1.230929999999999941e-01 1.912635000000000085e+00 2.307160000000000044e-01 6.992570000000000174e-01 -2.646669999999999856e-01 1.425990000000000035e-01 -1.255060000000000064e-01 5.672800000000000065e-02 -6.463299999999999601e-01 3.670490000000000141e-01 -4.861809999999999743e-01 -2.141230000000000078e-01 1.615159999999999929e-01 8.982989999999999586e-01 5.574109999999999898e-01 -5.083399999999999724e-02 -4.157799999999999829e-01 1.444800000000000077e-02 -7.695729999999999515e-01 -7.997500000000000442e-02 -1.543630000000000002e-01 3.179980000000000029e-01 -6.037240000000000384e-01 2.036189999999999944e-01 -3.677500000000000213e-02 3.354389999999999872e-01 -6.506900000000000184e-02 5.115250000000000075e-01 -4.664699999999999958e-01 6.399000000000000243e-01 -1.967003999999999975e+00 -1.572270000000000056e-01 -2.066000000000000128e-03 -1.936999999999999920e-03 3.312280000000000224e-01 -3.284199999999999897e-01 2.722229999999999928e-01 9.295299999999999396e-02 -5.720359999999999889e-01 -2.220070000000000099e-01 2.222099999999999909e-01 -7.818619999999999459e-01 2.600020000000000109e-01 2.583019999999999761e-01 1.495940000000000047e-01 -2.074560000000000015e-01 2.759940000000000171e-01 1.197759999999999936e-01 1.619059999999999944e-01 -2.603659999999999863e-01 -1.105570000000000025e-01 3.998269999999999880e-01 -1.955540000000000056e-01 -5.245149999999999535e-01 -4.221579999999999777e-01 2.733519999999999839e-01 1.109850000000000003e-01 4.728490000000000193e-01 1.368479999999999974e-01 2.115100000000000036e-01 2.943319999999999825e-01 -3.605389999999999984e-01 -4.946200000000000041e-01 -2.291420000000000123e-01 -8.810099999999999876e-02 -6.522899999999999532e-02 1.120200000000000015e-02 -2.349179999999999879e-01 -5.238700000000000301e-02 4.940910000000000024e-01 -1.474640000000000117e-01 7.749300000000000632e-02 -1.157510000000000067e-01 -3.441179999999999795e-01 4.502260000000000151e-01 -1.115761999999999921e+00 6.708140000000000214e-01 7.674999999999999878e-02 -2.909570000000000212e-01 7.388100000000000223e-02 -6.478200000000000625e-02 -1.192225000000000090e+00 3.834290000000000198e-01 -2.790409999999999835e-01 -4.075110000000000121e-01 -3.887090000000000267e-01 9.757310000000000150e-01 -3.616420000000000190e-01 2.346350000000000102e-01 -8.299900000000000333e-02 6.164250000000000007e-01 -2.271519999999999928e-01 1.794375999999999971e+00 -4.008740000000000081e-01 5.300839999999999996e-01 6.870300000000000018e-02 3.694089999999999874e-01 -2.564239999999999853e-01 2.901380000000000070e-01 4.302210000000000201e-01 -4.574139999999999873e-01 5.198300000000000143e-02 4.220999999999999752e-02 4.955299999999999983e-02 -2.453829999999999900e-01 -8.107360000000000122e-01 -2.208080000000000043e-01 1.162314999999999987e+00 2.308379999999999876e-01 -3.468720000000000137e-01 -6.445969999999999756e-01 5.835409999999999764e-01 3.373700000000000310e-02 2.435980000000000090e-01 -6.129449999999999621e-01 -7.835599999999999510e-02 -2.560009999999999786e-01 -2.235149999999999915e-01 3.632610000000000006e-01 -4.449489999999999834e-01 -1.630250000000000032e-01 5.589000000000000218e-02 -4.016649999999999943e-01 9.313350000000000239e-01 -6.150949999999999473e-01 2.572100000000000081e-02 5.384689999999999754e-01 -5.785699999999999871e-02 -2.512349999999999861e-01 1.021920000000000051e-01 -2.545789999999999997e-01 5.039200000000000346e-01 2.842600000000000127e-01 2.820670000000000122e-01 -1.541589999999999905e-01 -4.633639999999999981e-01 3.821000000000000091e-02 7.892439999999999456e-01 -5.833120000000000527e-01 -2.238549999999999984e-01 1.127294999999999936e+00 1.356910000000000061e-01 2.234659999999999980e-01 -2.340919999999999945e-01 1.745899999999999883e-02 2.236700000000000146e-02 -3.970520000000000160e-01 -8.914140000000000397e-01 -2.642840000000000189e-01 -3.276129999999999876e-01 3.417800000000000005e-02 7.054709999999999592e-01 -1.799060000000000104e-01 3.385599999999999721e-02 -3.709999999999999964e-01 -8.310330000000000217e-01 2.753309999999999924e-01 1.247079999999999994e-01 -1.107179999999999970e-01 7.741800000000000070e-02 -8.609000000000000333e-03 -1.301480000000000137e-01 -1.717799999999999883e-01 -4.200600000000000167e-02 -3.387999999999999953e-03 -4.000999999999999696e-02 -1.063690000000000052e-01 7.962470000000000381e-01 7.385500000000000398e-02 3.803590000000000027e-01 3.709520000000000040e-01 -9.692299999999999527e-02 3.528699999999999892e-02 -4.376200000000000229e-02 -3.201699999999999685e-02 7.228189999999999893e-01 9.087699999999999945e-02 -4.417229999999999768e-01 -2.524310000000000165e-01 2.517900000000000138e-01 -2.892640000000000211e-01 -8.878600000000000381e-02 5.644040000000000168e-01 -4.520199999999999912e-02 -6.073239999999999750e-01 -5.638290000000000246e-01 -4.425129999999999897e-01 -6.075110000000000232e-01 7.587000000000000688e-02 -1.950689999999999924e-01 1.864700000000000038e-02 2.826199999999999823e-01 -7.747079999999999522e-01 5.873199999999999948e-02 -4.260780000000000123e-01 1.488510000000000000e+00 -4.193919999999999870e-01 -1.213579999999999937e-01 1.407889999999999975e-01 -3.017739999999999867e-01 -5.626309999999999922e-01 -3.938820000000000099e-01 -3.187749999999999750e-01 9.829100000000000337e-02 -3.088670000000000027e-01 -8.602579999999999671e-01 -2.935799999999999868e-02 2.139850000000000085e-01 -3.386040000000000161e-01 2.919459999999999833e-01 -2.617619999999999947e-01 -3.702889999999999793e-01 -5.284459999999999713e-01 9.150000000000000147e-04 -5.916069999999999940e-01 -2.412940000000000085e-01 4.114600000000000202e-02 -5.254990000000000494e-01 2.853049999999999753e-01 1.518339999999999967e-01 1.008642000000000039e+00 3.280700000000000283e-02 2.322700000000000042e-01 -1.820269999999999944e-01 -1.890080000000000093e-01 -9.635499999999999621e-02 -1.010520000000000029e-01 5.168600000000000277e-02 1.638852999999999893e+00 -1.956920000000000048e-01 -1.162139999999999979e-01 -1.470539999999999903e-01 6.622599999999999321e-02 -3.101800000000000043e-02 9.834039999999999448e-01 8.599160000000000137e-01 8.141270000000000451e-01 4.388299999999999840e-02 4.033749999999999836e-01 -2.990900000000000156e-02 -6.270850000000000035e-01 4.761179999999999857e-01 -4.410810000000000008e-01 -2.584009999999999918e-01 -2.680850000000000177e-01 -7.608000000000000318e-01 -1.659439000000000108e+00 1.019657999999999953e+00 1.404482000000000008e+00 -5.176659999999999595e-01 4.152529999999999832e-01 2.172121000000000191e+00 6.122119999999999784e-01 -5.692129999999999690e-01 -1.062479999999999952e-01 -1.362913000000000041e+00 9.768200000000000216e-01 8.456759999999999833e-01 -9.147760000000000336e-01 1.034995000000000109e+00 4.988429999999999809e-01 1.749875999999999987e+00 6.611099999999999755e-01 -3.603463000000000083e+00 2.714380000000000126e-01 4.905979999999999785e-01 -7.096639999999999615e-01 -3.727559999999999762e-01 9.923499999999999543e-01 -1.358022999999999980e+00 -5.818379999999999663e-01 1.659589999999999954e-01 -5.539039999999999520e-01 -7.453100000000000003e-02 7.224589999999999623e-01 -6.870209999999999928e-01 -4.962070000000000092e-01 -1.545549999999999979e+00 -1.211087000000000025e+00 -1.303501000000000021e+00 -3.288599999999999857e-01 1.538025999999999893e+00 5.851929999999999632e-01 2.363182999999999812e+00 -3.801970000000000072e-01 1.444105999999999890e+00 4.995229999999999948e-01 -8.986750000000000016e-01 -7.293560000000000043e-01 -7.261720000000000397e-01 1.557850000000000068e-01 -4.932000000000000273e-02 1.705389000000000044e+00 4.744950000000000001e-01 -5.905740000000000434e-01 -6.867600000000000371e-01 1.471776999999999891e+00 -1.595663000000000054e+00 -2.238370000000000082e-01 2.777160000000000184e-01 4.724400000000000266e-01 -1.785268999999999995e+00 1.224415000000000031e+00 1.639604999999999979e+00 -1.045855999999999897e+00 -1.573021999999999920e+00 7.676570000000000338e-01 9.349990000000000245e-01 1.526602999999999932e+00 5.505900000000000238e-01 1.898229999999999917e-01 -1.891349999999999976e-01 -1.958328999999999986e+00 1.772987000000000091e+00 3.775513999999999815e+00 2.192149999999999821e+00 -2.185617000000000143e+00 -8.201519999999999921e-01 9.747879999999999878e-01 3.104759999999999742e-01 2.744889000000000134e+00 -1.662171000000000065e+00 -1.273799999999999932e-02 1.227416999999999980e+00 8.311870000000000092e-01 -1.751300000000000079e-02 -2.668070000000000164e-01 2.548549999999999982e-01 -7.810529999999999973e-01 -1.178768000000000038e+00 1.839946999999999999e+00 -4.056690000000000018e-01 -1.082400000000000029e+00 1.875469999999999915e-01 2.413260000000000127e-01 5.662999999999999978e-02 -2.090090000000000003e-01 -3.710749999999999882e-01 7.367930000000000312e-01 2.124495000000000022e+00 -2.994702999999999893e+00 9.983560000000000212e-01 2.953904999999999781e+00 -1.676590000000000025e+00 3.204979999999999940e+00 4.436599999999999988e-01 6.174180000000000224e-01 -9.558280000000000109e-01 -8.300399999999999445e-02 1.763903999999999916e+00 -5.302700000000000191e-01 -1.674644000000000021e+00 -1.529657000000000044e+00 1.505068999999999990e+00 -4.153280999999999779e+00 -1.693599999999999994e+00 -1.739709999999999868e-01 5.060860000000000358e-01 7.539299999999999891e-01 -2.691169999999999951e-01 -5.824909999999999810e-01 -1.065553999999999890e+00 2.926858000000000182e+00 1.421172000000000102e+00 5.751400000000000262e-02 -5.165419999999999456e-01 1.614543999999999979e+00 -1.132047999999999943e+00 -2.052499000000000073e+00 -4.463449999999999918e-01 -4.381039999999999934e-01 2.031086999999999865e+00 -2.447416000000000036e+00 3.639705999999999886e+00 -3.413700000000000068e-02 1.825385999999999953e+00 1.044221999999999984e+00 1.124355999999999911e+00 1.246941999999999995e+00 1.516800000000000093e-01 6.923390000000000377e-01 -1.397283999999999970e+00 -1.280998000000000081e+00 -2.116540000000000088e-01 -2.862970000000000237e-01 3.734121000000000024e+00 -2.723055000000000003e+00 -2.069300000000000028e-01 5.800999999999999907e-02 -3.939770000000000216e-01 1.068222999999999923e+00 -2.634520000000000195e-01 1.836820000000000119e-01 -1.058016000000000068e+00 3.003279999999999839e-01 -1.677866000000000080e+00 -1.356386000000000092e+00 -7.968290000000000095e-01 -3.540010000000000101e-01 1.440415999999999919e+00 -5.084889999999999688e-01 -2.102310000000000012e-01 1.366040000000000032e-01 8.634849999999999470e-01 1.241244999999999932e+00 -5.851979999999999960e-01 4.631210000000000049e-01 -5.483489999999999753e-01 9.527949999999999475e-01 1.563640000000000030e-01 -3.867599999999999927e-01 -1.177559000000000022e+00 1.395659999999999956e-01 1.153510999999999953e+00 -1.071201999999999988e+00 -6.406840000000000312e-01 2.126550000000000107e-01 6.500000000000000222e-02 6.230120000000000102e-01 -4.092250000000000054e-01 -7.138100000000000001e-02 -6.274830000000000130e-01 1.334940000000000015e-01 1.248450999999999977e+00 5.282510000000000261e-01 6.319789999999999575e-01 1.160913000000000084e+00 1.516490000000000060e-01 6.034000000000000301e-03 -6.534900000000000431e-02 -6.868699999999999806e-01 -9.283500000000000085e-02 -1.868419000000000052e+00 -5.614540000000000086e-01 9.569879999999999498e-01 8.269899999999999474e-02 -3.187420000000000253e-01 -2.474999999999999978e-01 5.429159999999999542e-01 2.861859999999999959e-01 8.445300000000000029e-02 1.574500999999999928e+00 1.447456000000000076e+00 -1.521250000000000102e-01 -1.869655000000000067e+00 -8.852029999999999621e-01 -2.105750000000000122e-01 -2.638309999999999822e-01 3.413100000000000023e-01 -5.319869999999999877e-01 -1.231185999999999892e+00 6.103210000000000024e-01 -2.341870000000000063e-01 -5.404320000000000235e-01 -1.933900000000000063e-01 1.709249999999999936e-01 -4.890360000000000262e-01 6.200700000000000101e-01 8.963179999999999481e-01 -1.696827000000000085e+00 -7.421499999999999764e-01 -6.543930000000000025e-01 4.580520000000000147e-01 4.923000000000000292e-02 4.200400000000000245e-01 -3.308369999999999922e-01 -4.761329999999999729e-01 2.164800000000000058e-02 1.056855000000000100e+00 1.189518000000000075e+00 -1.015695000000000014e+00 1.080615000000000103e+00 7.476610000000000200e-01 1.170360000000000011e-01 2.447570000000000023e-01 5.899990000000000512e-01 9.758799999999999419e-02 7.549740000000000339e-01 5.334229999999999805e-01 -3.128469999999999862e-01 4.548550000000000093e-01 -2.812890000000000112e-01 -3.811610000000000276e-01 -1.345517000000000074e+00 2.591579999999999995e-01 1.959239999999999871e-01 -7.624410000000000354e-01 -2.794960000000000222e-01 -9.250720000000000054e-01 2.616820000000000257e-01 -4.543200000000000016e-01 -1.484029000000000043e+00 -1.180620000000000003e-01 -6.685720000000000551e-01 3.128830000000000222e-01 3.753179999999999850e-01 1.560788999999999982e+00 1.461760000000000004e-01 3.663799999999999835e-01 6.519920000000000160e-01 5.053720000000000434e-01 -1.355012000000000105e+00 8.354310000000000347e-01 -1.128926000000000096e+00 -2.147675000000000001e+00 -1.024661000000000044e+00 1.327399999999999969e-01 3.530190000000000272e-01 -2.460104999999999986e+00 -5.611340000000000217e-01 1.752400000000000138e-02 -4.152939999999999965e-01 -1.816513999999999962e+00 8.213960000000000150e-01 -9.736470000000000402e-01 4.913900000000000212e-02 -1.296694999999999931e+00 -1.095827000000000107e+00 -6.889180000000000303e-01 -7.715710000000000068e-01 -8.172620000000000440e-01 -1.671073000000000031e+00 -1.001813000000000065e+00 -1.193232000000000070e+00 -1.177885000000000071e+00 6.115829999999999878e-01 -7.381069999999999576e-01 -1.412781999999999982e+00 7.542200000000000015e-01 -6.543879999999999697e-01 -6.424799999999999955e-02 -1.170835999999999988e+00 5.206870000000000109e-01 -1.471535000000000037e+00 3.487799999999999928e-02 9.202529999999999877e-01 3.365199000000000051e+00 -4.992929999999999868e-01 -1.103806000000000065e+00 5.604299999999999837e-01 -5.053410000000000402e-01 4.963369999999999727e-01 5.012929999999999886e-01 -7.133859999999999646e-01 2.148299999999999932e-01 -6.218399999999999483e-01 5.589199999999999724e-01 8.208630000000000093e-01 -1.902399999999999924e-02 -2.594629999999999992e-01 4.301929999999999921e-01 3.204179999999999806e-01 -2.611899999999999777e-01 8.483239999999999670e-01 -7.091920000000000446e-01 -4.573820000000000108e-01 4.794860000000000233e-01 3.363119999999999998e-01 -3.879699999999999815e-02 6.866860000000000186e-01 6.743400000000000505e-01 6.374000000000000325e-03 1.175739999999999980e-01 -4.416059999999999985e-01 -2.071099999999999886e-01 -6.491869999999999585e-01 -8.964790000000000258e-01 -4.698620000000000019e-01 6.846619999999999928e-01 -1.432019999999999960e-01 -5.760739999999999750e-01 5.549699999999999772e-02 1.110578999999999983e+00 1.518809999999999882e-01 -7.995039999999999925e-01 -2.541249999999999898e-01 -1.948840000000000017e-01 3.241330000000000044e-01 -2.323195999999999817e+00 2.062559999999999949e-01 -1.409259999999999957e-01 1.270558999999999994e+00 -4.889479999999999937e-01 5.123670000000000169e-01 3.113620000000000276e-01 -3.025189999999999824e-01 6.093399999999999928e-01 -6.484870000000000356e-01 8.456400000000000028e-02 -1.084327999999999959e+00 9.498180000000000511e-01 8.562760000000000371e-01 8.419529999999999514e-01 8.051469999999999461e-01 -4.192300000000000193e-02 -4.834700000000000109e-01 4.459139999999999771e-01 5.432040000000000202e-01 6.460899999999999976e-02 -3.211300000000000265e-02 -1.169079999999999980e-01 -1.825360000000000038e-01 -6.771779999999999466e-01 -9.157690000000000552e-01 -3.918340000000000156e-01 -8.578559999999999519e-01 -4.974919999999999898e-01 -7.685549999999999882e-01 -3.765064999999999884e+00 -1.400309999999999888e-01 -2.690690000000000026e+00 7.047790000000000443e-01 1.519189999999999985e-01 4.272360000000000047e-01 3.936879999999999824e-01 1.435289999999999899e-01 1.548764999999999947e+00 -4.144109999999999738e-01 5.791070000000000384e-01 -1.059739999999999988e-01 2.480890000000000040e-01 -4.365559999999999996e-01 -5.279049999999999576e-01 -7.869890000000000496e-01 4.826540000000000274e-01 -2.750670000000000059e-01 -1.606462000000000057e+00 -3.317521000000000164e+00 -2.610313999999999801e+00 1.170252999999999988e+00 1.624939999999999996e-01 -1.577279000000000098e+00 1.451421999999999990e+00 7.661759999999999682e-01 -4.393239999999999923e-01 5.173550000000000093e-01 -1.905340000000000089e-01 -1.396484999999999976e+00 -1.124735000000000040e+00 2.907359999999999944e-01 -1.096322999999999936e+00 5.908099999999999463e-01 -3.405650000000000066e-01 -4.009170000000000234e-01 -1.088203000000000031e+00 1.087692000000000103e+00 -3.281339999999999812e-01 -1.098849999999999966e-01 -3.398619000000000057e+00 2.047146000000000132e+00 -7.230199999999999960e-01 -1.473154999999999992e+00 1.523195000000000077e+00 2.694849999999999746e-01 -1.215429000000000093e+00 1.379273999999999889e+00 5.919050000000000145e-01 -2.358992999999999896e+00 1.076198999999999906e+00 -1.374620000000000009e-01 8.159870000000000179e-01 6.632599999999999607e-01 8.881869999999999488e-01 1.679499999999999882e-01 1.023913000000000073e+00 -1.307300000000000129e-01 -4.356789999999999830e-01 4.792910000000000226e-01 5.670399999999999746e-02 7.568920000000000092e-01 -3.482199999999999879e-02 -3.881410000000000138e-01 -1.751568000000000014e+00 1.589636999999999967e+00 4.196110000000000118e-01 -5.440819999999999546e-01 6.202450000000000463e-01 1.257639999999999869e-01 1.402309000000000028e+00 4.942090000000000094e-01 2.082880000000000009e-01 6.305340000000000389e-01 4.595609999999999973e-01 6.458639999999999937e-01 -2.369590000000000030e-01 -7.067700000000000371e-02 -2.114119999999999888e-01 1.502847999999999962e+00 9.080019999999999758e-01 7.113690000000000291e-01 1.101526999999999923e+00 8.276740000000000208e-01 3.084169999999999967e-01 3.537540000000000129e-01 2.010838000000000125e+00 -1.062353000000000103e+00 -9.863359999999999905e-01 -2.043215000000000003e+00 7.971139999999999892e-01 2.707049999999999734e-01 1.326608000000000009e+00 1.871480000000000088e-01 6.497460000000000457e-01 8.567700000000000315e-02 1.228547999999999973e+00 -1.769689999999999874e-01 2.212639999999999885e-01 -1.231168000000000040e+00 6.291499999999999870e-02 3.856419999999999848e-01 -7.033049999999999580e-01 -8.216520000000000490e-01 -8.222570000000000157e-01 -1.027360000000000051e+00 -3.858500000000000124e-02 1.826300000000000145e-02 -2.256900000000000017e-01 3.501835999999999949e+00 1.856292000000000053e+00 4.233500000000000041e-01 3.828750000000000209e-01 7.369660000000000100e-01 -2.064680000000000126e-01 2.114399999999999891e-01 6.556300000000000461e-01 1.500999999999999947e-03 1.140077999999999925e+00 1.097400000000000042e-01 9.118709999999999871e-01 -3.324639999999999818e-01 -7.793889999999999985e-01 -4.008840000000000181e-01 -8.232610000000000205e-01 5.826400000000000468e-01 -9.227739999999999831e-01 -1.289504999999999901e+00 -1.269460000000000033e+00 -1.394069999999999920e+00 8.566340000000000066e-01 7.081769999999999454e-01 -1.429030000000000022e+00 -1.097933000000000048e+00 -8.945469999999999811e-01 -8.907199999999999840e-02 1.033112000000000030e+00 1.952600000000000169e-02 3.914039999999999742e-01 -3.628870000000000151e-01 2.580279999999999796e-01 -1.495650000000000035e-01 6.699629999999999752e-01 -7.287899999999999934e-02 7.687650000000000317e-01 7.469299999999999551e-02 1.957579999999999876e-01 2.112719999999999876e-01 -6.001520000000000188e-01 -4.487450000000000050e-01 -2.312109999999999999e-01 1.214852000000000043e+00 -4.720440000000000191e-01 9.426670000000000327e-01 -1.055291999999999897e+00 1.009104000000000001e+00 -5.080300000000000094e-02 -1.694430000000000103e-01 -5.373409999999999576e-01 8.779199999999999504e-02 -7.215510000000000534e-01 5.388810000000000544e-01 -1.391726000000000019e+00 -1.728900000000000103e+00 2.313429999999999931e-01 -1.091706999999999983e+00 7.149480000000000279e-01 9.041759999999999797e-01 2.841060000000000252e-01 4.993469999999999853e-01 -1.457050000000000012e-01 1.848843000000000014e+00 -3.649279999999999746e-01 -1.718968000000000051e+00 8.541649999999999521e-01 6.654640000000000555e-01 6.018099999999999838e-02 -5.491120000000000445e-01 4.910899999999999987e-02 5.483879999999999866e-01 -2.676419999999999910e-01 -2.053669999999999940e-01 -1.530945999999999918e+00 6.283900000000000596e-02 1.665138000000000007e+00 -1.279403000000000068e+00 1.278759999999999897e-01 3.588299999999999823e-01 8.432530000000000303e-01 2.549669999999999992e-01 1.633640000000000092e-01 -1.802149999999999863e-01 1.748100000000000001e-02 1.855239999999999945e-01 3.553910000000000124e-01 -8.766310000000000491e-01 -5.439260000000000206e-01 5.339300000000000296e-02 -1.777919999999999945e+00 1.276146999999999920e+00 1.362017000000000033e+00 -9.036739999999999773e-01 -2.878490000000000215e-01 6.830129999999999812e-01 -8.161049999999999693e-01 8.878900000000000681e-02 -7.522459999999999702e-01 -9.672100000000000142e-02 -3.475440000000000196e-01 -1.889909999999999923e-01 8.780109999999999859e-01 8.355500000000000427e-02 2.868199999999999916e-02 -9.247499999999999609e-01 5.817200000000000149e-02 -1.058572999999999986e+00 -2.062990000000000101e-01 1.883430000000000104e-01 7.485309999999999464e-01 -5.844319999999999515e-01 6.137369999999999770e-01 -1.683910999999999936e+00 -1.494528000000000079e+00 3.506790000000000185e-01 -1.006488000000000049e+00 -1.705000000000000127e-01 -9.399189999999999490e-01 -2.255659999999999887e-01 -9.703899999999999748e-01 -9.120759999999999978e-01 -1.578910000000000036e-01 1.537377999999999911e+00 4.504500000000000171e-01 -4.129860000000000197e-01 1.652598000000000011e+00 -6.068540000000000045e-01 -2.158771999999999913e+00 -5.453799999999999759e-01 -2.166170000000000040e-01 4.555879999999999930e-01 4.229339999999999766e-01 8.486590000000000522e-01 -9.634209999999999718e-01 1.756215000000000082e+00 2.105680000000000052e-01 -7.718429999999999458e-01 -2.938142000000000031e+00 7.791620000000000212e-01 9.879700000000000149e-01 -6.184819999999999762e-01 -7.150499999999999912e-02 2.410559999999999925e-01 1.806030000000000135e-01 -6.948600000000000609e-02 -1.505539999999999934e-01 1.530272000000000077e+00 -3.185569999999999791e-01 -8.037969999999999837e-01 -1.639029999999999931e-01 -3.214969999999999772e-01 9.001199999999999479e-02 -1.777920000000000056e-01 -9.692429999999999657e-01 5.021320000000000228e-01 1.672900999999999971e+00 6.490810000000000191e-01 -1.960500000000000090e-02 -1.217905999999999933e+00 -1.776507999999999976e+00 3.731320000000000192e-01 -1.427562999999999915e+00 3.286069999999999824e-01 1.130260000000000042e+00 -1.659156000000000075e+00 -4.882199999999999734e-02 9.174259999999999637e-01 -2.700069999999999970e-01 -1.346322999999999936e+00 4.677040000000000086e-01 8.626740000000000519e-01 5.063910000000000355e-01 -3.086110000000000242e-01 4.216630000000000100e-01 -3.000169999999999781e-01 -1.904730000000000034e-01 1.090921000000000030e+00 1.737800000000000109e-02 -1.545799999999999952e-01 4.279950000000000143e-01 -3.913059999999999872e-01 7.424880000000000368e-01 -2.894979999999999776e-01 -3.102599999999999802e-01 7.839110000000000245e-01 9.766949999999999799e-01 5.818640000000000478e-01 8.711109999999999687e-01 -1.576950000000000018e-01 -2.996219999999999994e-01 -8.703689999999999483e-01 -9.170319999999999583e-01 5.475020000000000442e-01 5.877449999999999619e-01 8.358670000000000266e-01 1.235527999999999960e+00 7.216839999999999922e-01 6.530030000000000001e-01 2.540609999999999813e-01 -6.480839999999999934e-01 9.154400000000000037e-02 5.618288999999999866e+00 -3.587251000000000190e+00 4.744800000000000129e-01 -2.074300000000000033e-01 1.297508000000000106e+00 1.219800000000000051e-02 -4.695860000000000034e-01 -6.207150000000000167e-01 1.248060000000000003e-01 8.534600000000000519e-02 1.966720000000000135e-01 -2.806170000000000053e-01 2.935131999999999852e+00 -1.211845999999999979e+00 5.005370000000000097e-01 7.740569999999999951e-01 -7.065660000000000274e-01 7.943430000000000213e-01 -2.552229999999999777e-01 -7.199929999999999941e-01 3.705370000000000053e-01 4.185200000000000031e-01 -2.564960000000000018e-01 -1.4