1.437540000000000040e+00 6.521160000000000068e+00 8.017360000000000042e+00 1.144789999999999974e+00 6.586210000000000342e+00 2.414000000000000057e+01 1.589000000000000135e-01 2.073299999999999865e-01 9.601160000000000139e+00 1.655540000000000012e+00 1.495749999999999957e+01 1.853300000000000125e+01 1.251919999999999966e+01 4.231989999999999696e+00 9.294399999999999551e+00 1.123780000000000001e+01 6.276970000000000383e+00 2.167599999999999838e+01 1.061050000000000004e+01 1.583709999999999951e+01 9.700680000000000192e+00 8.082910000000000039e+00 2.654699999999999838e-01 2.269379999999999953e+01 1.811379999999999990e+00 1.049029999999999907e+00 1.288809999999999967e+01 2.010079999999999867e+00 2.503379999999999939e+00 2.269620000000000104e+01 2.053189999999999849e+00 1.546209999999999951e+01 1.621239999999999881e+01 7.899199999999999555e-01 1.282639999999999958e+01 2.489750000000000085e+01 1.049060000000000059e+01 6.434479999999999755e+00 1.536090000000000089e+01 9.926949999999999719e+00 3.140309999999999935e+00 2.483099999999999952e+01 9.836990000000000123e+00 9.688290000000000290e+00 9.691750000000000753e+00 1.120180000000000042e+01 1.062330000000000041e+01 7.294950000000000045e+00 5.167360000000000397e+00 4.753020000000000245e+00 2.936609999999999943e+00 1.869779999999999998e+00 6.823109999999999786e+00 2.082189999999999941e+01 3.843300000000000161e+00 1.295020000000000060e+01 2.785629999999999828e+00 1.722449999999999903e+01 2.209000000000000130e-01 1.542409999999999926e+01 1.065939999999999976e+01 2.264810000000000212e+00 2.830330000000000013e+00 9.029930000000000234e+00 8.920999999999999375e+00 1.541450000000000031e+01 6.592130000000000045e+00 1.472780000000000022e+01 5.619909999999999961e+00 9.747659999999999769e+00 1.502849999999999930e+01 1.546110000000000007e+01 6.558399999999999785e+00 1.529640000000000022e+01 9.187900000000000844e+00 2.531489999999999796e+00 1.825350000000000028e+00 1.877749999999999986e+01 1.761339999999999906e+00 1.032300000000000040e+01 2.369399999999999906e+01 1.823860000000000037e+00 1.025019999999999953e+01 1.592099999999999937e+01 6.201130000000000031e+00 3.138500000000000068e+00 5.775050000000000239e+00 1.251030000000000086e+01 4.648499999999999854e-01 1.919950000000000045e+01 6.164450000000000429e+00 1.054940000000000033e+01 4.157110000000000305e+00 1.108600000000000030e+01 1.114649999999999963e+01 2.483230000000000004e+01 2.190389999999999837e+00 1.940129999999999910e+00 6.077860000000000262e+00 3.874400000000000066e-01 4.769700000000000051e-01 2.168909999999999982e+01 2.352450000000000152e+00 1.100099999999999945e+01 9.212830000000000297e+00 2.443639999999999812e+00 1.079509999999999970e+01 2.001060000000000016e+01 1.174390000000000001e+01 2.394140000000000157e+00 1.142530000000000001e+01 1.061599999999999966e+01 2.217099999999999849e+00 2.217150000000000176e+01 6.835210000000000008e+00 6.418110000000000426e+00 1.183099999999999952e+01 1.190900000000000070e+01 1.271069999999999922e+01 2.201040000000000063e+01 5.087530000000000108e+00 4.006199999999999761e+00 9.760709999999999553e+00 4.224680000000000213e+00 8.355539999999999523e+00 1.949709999999999965e+01 1.659270000000000023e+00 1.485389999999999944e+01 9.461399999999999366e+00 1.748270000000000124e+01 1.243280000000000030e+01 1.849640000000000128e+01 8.526289999999999480e+00 8.862090000000000245e+00 2.931369999999999809e+00 9.999399999999999622e+00 2.440799999999999859e+00 1.862330000000000041e+01 8.489520000000000621e+00 1.330399999999999916e-01 2.867550000000000043e+00 1.533919999999999995e+01 2.464379999999999793e+00 1.921590000000000131e+01 4.749869999999999592e+00 8.348140000000000782e+00 3.372999999999999887e-01 2.659619999999999873e+00 2.610739999999999839e+00 9.976190000000000779e+00 2.549859999999999793e+00 1.517249999999999943e+01 2.202009999999999934e+01 1.666300000000000026e+01 1.336180000000000057e+01 1.243329999999999913e+01 1.085740000000000016e+01 6.764800000000000146e+00 2.508470000000000155e+01 1.134600000000000009e+01 6.803340000000000387e+00 1.264109999999999978e+01 1.102330000000000076e+01 1.478630000000000067e+01 1.338559999999999972e+00 1.128669999999999973e+01 1.074060000000000059e+01 1.316469999999999985e+01 1.616079999999999828e+01 1.509880000000000067e+01 3.170980000000000132e+00 2.600070000000000103e+00 2.561929999999999819e+00 1.534590000000000032e+01 3.377549999999999830e+00 8.724539999999999296e+00 7.086789999999999701e+00 2.596540000000000070e+00 1.549910000000000032e+01 1.171340000000000003e+01 1.087209999999999965e+01 1.841259999999999897e+00 5.751009999999999955e+00 1.110500000000000043e+01 2.297750000000000181e+00 1.467319999999999958e+01 1.079449999999999932e+01 1.092319999999999958e+01 3.177169999999999828e+00 1.089419999999999966e+01 1.083999999999999986e+01 1.647860000000000014e+01 6.778139999999999610e+00 2.423569999999999780e+00 1.394640000000000057e+01 4.048499999999999766e+00 4.383420000000000094e+00 2.277139999999999986e+01 4.455379999999999896e+00 1.224239999999999995e+01 9.647959999999999425e+00 4.418359999999999843e+00 1.266089999999999982e+01 2.199549999999999983e+01 1.536700000000000088e+01 6.538409999999999833e+00 6.082069999999999865e+00 7.769230000000000302e+00 5.514149999999999885e+00 2.481340000000000146e+01 1.527040000000000042e+01 1.513940000000000019e+01 9.122040000000000148e+00 1.610579999999999856e+01 9.767699999999999605e+00 2.129530000000000101e+01 6.840980000000000061e+00 1.100919999999999987e+01 2.125199999999999889e+01 1.261230000000000073e+00 1.129770000000000074e+01 1.175590000000000046e+01 2.170370000000000132e+00 1.590639999999999965e+01 5.164900000000000047e-01 4.837279999999999802e+00 2.700099999999999723e-01 1.343350000000000044e+01 5.592209999999999681e+00 1.047639999999999993e+01 2.413680000000000092e+01 1.539349999999999952e+01 5.688920000000000421e+00 1.433360000000000056e+01 1.276600000000000001e+01 1.699030000000000129e+01 2.832700000000000218e-01 1.301329999999999920e+01 1.729720000000000013e+01 1.337710000000000043e+01 2.404399999999999871e+00 6.743529999999999802e+00 4.637159999999999727e+00 3.824479999999999880e+00 1.376179999999999914e+01 1.519459999999999944e+01 7.181739999999999569e+00 9.947899999999999521e-01 9.075630000000000308e+00 4.882769999999999833e+00 4.303500000000000103e-01 1.978430000000000177e+01 1.519030000000000058e+01 1.088059999999999938e+01 5.154749999999999943e+00 1.365199999999999925e+01 8.693429999999999325e+00 2.007410000000000139e+01 1.246930000000000049e+01 3.483399999999999830e-01 6.771930000000000227e+00 1.544549999999999912e+01 1.519580000000000020e+01 2.476370000000000005e+01 1.093950000000000067e+01 1.925839999999999996e+00 8.671099999999999142e+00 6.394020000000000259e+00 2.263220000000000010e+00 2.287630000000000052e+01 6.756059999999999732e+00 6.770710000000000228e+00 8.687910000000000466e+00 9.049970000000000070e+00 1.239530000000000065e+01 1.808559999999999945e+01 5.761999999999999761e-02 4.492960000000000065e+00 1.192619999999999969e+01 1.315579999999999927e+01 4.142280000000000406e+00 3.461489999999999956e+00 1.253600000000000048e+00 6.758779999999999788e+00 1.635650000000000048e+01 1.544410000000000061e+01 9.595980000000000842e+00 5.924300000000000122e-01 6.168660000000000032e+00 1.403510000000000035e+00 4.085199999999999942e-01 4.173750000000000071e+00 4.685159999999999769e+00 1.604289999999999949e+01 7.918529999999999625e+00 1.348240000000000016e+01 2.414160000000000039e+01 5.618360000000000021e+00 1.084789999999999921e+01 1.553079999999999927e+01 1.709900000000000020e+01 3.949949999999999850e+00 5.513300000000000090e+00 1.510479999999999912e+01 2.395910000000000206e+00 1.538560000000000016e+01 3.268199999999999994e-01 8.888629999999999143e+00 3.074899999999999967e+00 1.299200000000000088e+01 5.647780000000000022e+00 1.635630000000000095e+01 1.985249999999999959e+00 1.853199999999999958e+00 2.557010000000000005e+00 6.582510000000000083e+00 6.603690000000000282e+00 2.222350000000000136e+01 2.730109999999999815e+00 1.055189999999999984e+01 2.089690000000000047e+00 8.698359999999999204e+00 2.987000000000000210e-01 1.548990000000000045e+01 1.082240000000000002e+01 6.919500000000000206e+00 3.370140000000000136e+00 1.289429999999999943e+01 4.335119999999999862e+00 2.243830000000000169e+01 1.543149999999999977e+01 1.527989999999999959e+01 6.292089999999999961e+00 1.252149999999999963e+01 1.428619999999999912e+01 1.618809999999999860e+01 6.727109999999999701e+00 7.023719999999999963e+00 4.688950000000000173e+00 6.831129999999999924e+00 6.352769999999999584e+00 1.597109999999999985e+01 6.085210000000000008e+00 1.542149999999999999e+01 1.168109999999999982e+00 6.725869999999999571e+00 1.574610000000000021e+01 1.655989999999999895e+01 1.529679999999999929e+01 6.496450000000000280e+00 2.460140000000000171e+01 1.538920000000000066e+01 7.122510000000000119e+00 9.799509999999999721e+00 2.172109999999999985e+00 1.535130000000000017e+01 4.169349999999999667e+00 1.544469999999999921e+01 1.538449999999999918e+01 1.184500000000000064e+01 4.867530000000000356e+00 2.320200000000000040e-01 6.491229999999999833e+00 1.059500000000000064e+01 1.621290000000000120e+01 2.152809999999999846e+01 6.634920000000000151e+00 1.067719999999999914e+01 7.946909999999999918e+00 1.132779999999999987e+01 1.117399999999999949e+01 1.991529999999999845e+01 1.510929999999999929e+01 6.351600000000000357e+00 2.628519999999999968e+00 1.457499999999999929e+01 2.243119999999999781e+00 2.268140000000000001e+01 1.204129999999999967e+01 1.335820000000000007e+01 9.347870000000000346e+00 1.517089999999999961e+01 1.116849999999999987e+01 1.498019999999999996e+01 4.146759999999999557e+00 9.314349999999999241e+00 1.349740000000000073e+01 8.843349999999999156e+00 8.368240000000000123e+00 2.142210000000000036e+01 1.358980000000000032e+01 8.368380000000000152e+00 1.377239999999999931e+01 5.734359999999999680e+00 1.513899999999999935e+01 2.349109999999999943e+01 1.302270000000000039e+01 8.096629999999999328e+00 6.985549999999999926e+00 1.576730000000000054e+01 7.309870000000000090e+00 2.127870000000000061e+01 1.528669999999999973e+01 2.702920000000000211e+00 1.083159999999999989e+01 1.520940000000000047e+01 1.613909999999999911e+01 2.128849999999999909e+01 3.096150000000000180e+00 1.552149999999999963e+01 6.832069999999999865e+00 6.475609999999999644e+00 3.079930000000000057e+00 1.881289999999999907e+01 1.060050000000000026e+01 6.267179999999999751e+00 7.723690000000000389e+00 1.087030000000000030e+01 1.582709999999999972e+01 1.890119999999999933e+01 1.477829999999999977e+01 1.860719999999999930e+00 6.071229999999999905e+00 1.555569999999999986e+01 1.752289999999999903e+00 2.965370000000000061e+00 1.539000000000000057e+01 1.067759999999999998e+01 8.870100000000000762e+00 1.560369999999999990e+01 6.965679999999999872e+00 1.752680000000000149e+01 8.706200000000000827e+00 4.804359999999999964e+00 5.952639999999999709e+00 7.505860000000000198e+00 6.466920000000000002e+00 1.902189999999999870e+01 9.843809999999999505e+00 1.405780000000000030e+01 5.095259999999999678e+00 7.538590000000000124e+00 1.559629999999999939e+01 2.056769999999999854e+01 2.629150000000000098e+00 6.283879999999999910e+00 1.237800000000000011e+00 6.452200000000000157e-01 4.755390000000000228e+00 1.842680000000000007e+01 1.590559999999999974e+00 1.146279999999999966e+01 5.540849999999999831e+00 1.511469999999999914e+01 1.511660000000000004e+01 1.563780000000000037e+01 9.194039999999999324e+00 3.989570000000000061e+00 1.217699999999999960e+01 6.697199999999999598e+00 2.162180000000000213e+00 3.356479999999999908e+00 7.976709999999999745e+00 1.069529999999999959e+01 1.163219999999999921e+01 1.488299999999999912e+01 1.199109999999999943e+01 2.245370000000000132e+01 2.599120000000000097e+00 6.956780000000000186e+00 1.294870000000000054e+01 1.684450000000000003e+01 4.304400000000000226e+00 2.518140000000000001e+01 1.553720000000000034e+01 1.058990000000000009e+01 1.164140000000000086e+01 1.380310000000000059e+01 1.277420000000000044e+01 2.572049999999999947e+00 4.326870000000000438e+00 8.164490000000000691e+00 2.253590000000000160e+01 4.404720000000000191e+00 1.575400000000000134e-01 9.930910000000000792e+00 3.992669999999999941e+00 1.486800000000000066e-01 2.250270000000000081e+01 1.243459999999999965e+01 8.685639999999999361e+00 1.032360000000000078e+01 1.300370000000000026e+01 1.299299999999999899e-01 1.036829999999999963e+01 8.881869999999999266e+00 4.473469999999999835e+00 2.743720000000000159e+00 2.883899999999999797e-01 4.165750000000000064e+00 2.178809999999999913e+00 2.612599999999999922e-01 4.426120000000000054e+00 1.521359999999999957e+01 1.743969999999999843e+01 1.256879999999999953e+01 2.183419999999999916e+00 1.749749999999999872e+01 1.295500000000000007e+01 1.536560000000000059e+01 1.732290000000000063e+01 1.308919999999999995e+01 8.784689999999999444e+00 8.774660000000000792e+00 4.546700000000000408e+00 2.161720000000000041e+01 8.527290000000000703e+00 1.310210000000000008e+01 2.088230000000000075e+01 4.081610000000000404e+00 1.745380000000000109e+01 3.505160000000000053e+00 4.546960000000000335e+00 2.454099999999999893e-01 1.661110000000000042e+01 4.431180000000000341e+00 8.651930000000000121e+00 4.227089999999999570e+00 4.565999999999999837e+00 8.667389999999999262e+00 1.002190000000000047e+01 1.340889999999999915e+01 8.720190000000000552e+00 2.274480000000000146e+01 1.316510000000000069e+01 1.159000000000000030e-01 2.222439999999999927e+01 8.757389999999999119e+00 4.220259999999999678e+00 1.480359999999999943e+01 8.630300000000000082e+00 1.313160000000000061e+01 2.130040000000000155e+00 8.345299999999999940e+00 1.284399999999999942e+01 1.489380000000000059e+01 1.732189999999999941e+01 3.989619999999999944e+00 8.597720000000000695e+00 1.734530000000000172e+01 4.610750000000000348e+00 2.141870000000000118e+01 1.731200000000000117e+01 1.305990000000000073e+01 2.149960000000000093e+01 8.729279999999999262e+00 4.063740000000000130e+00 8.766890000000000072e+00 8.898649999999999949e+00 1.331600000000000072e+01 8.445940000000000225e+00 4.382830000000000226e+00 8.569660000000000721e+00 1.641870000000000118e+01 1.306610000000000049e+01 1.686649999999999849e+01 3.632480000000000153e+00 1.326609999999999978e+01 1.391000000000000049e-02 1.641379999999999839e+01 1.333549999999999969e+01 8.828680000000000305e+00 3.698879999999999946e+00 1.299980000000000047e+01 8.555039999999999978e+00 1.674749999999999872e+01 4.471569999999999823e+00 4.377100000000000435e+00 1.262909999999999933e+01 4.326939999999999564e+00 4.285879999999999690e+00 1.418399999999999939e-01 4.253230000000000288e+00 1.273639999999999972e+01 1.253410000000000046e+01 4.328969999999999985e+00 1.275029999999999930e+01 2.527769999999999939e+01 1.309800000000000075e+01 4.871369999999999756e+00 1.229909999999999926e+01 1.309110000000000085e+01 4.324130000000000251e+00 2.535698000000000008e+01 1.306370000000000076e+01 1.294969999999999999e+01 1.305269999999999975e+01 1.295120000000000005e+01 1.342950000000000088e+01 2.481960000000000122e+01 8.752599999999999270e+00 8.705360000000000653e+00 6.302010000000000112e+00 9.166320000000000690e+00 8.443220000000000169e+00 1.864740000000000109e+01 8.641890000000000072e+00 7.693999999999999451e-02 5.959579999999999878e+00 8.423170000000000712e+00 2.848399999999999821e-01 1.904439999999999955e+01 1.731950000000000145e+01 8.357129999999999725e+00 6.481370000000000076e+00 1.220900000000000041e-01 9.105669999999999931e+00 1.913510000000000133e+01 1.710620000000000118e+01 1.738400000000000034e+01 6.116970000000000240e+00 1.747159999999999869e+01 3.139899999999999913e-01 1.852860000000000085e+01 4.240000000000000019e-02 6.248669999999999725e+00 1.024950000000000028e+00 1.612999999999999989e-01 6.373549999999999827e+00 1.415060000000000073e+01 1.731220000000000070e+01 1.437940000000000040e+01 9.872400000000000064e-01 3.597299999999999942e-01 1.455519999999999925e+01 1.402989999999999959e+01 8.693580000000000751e+00 6.324530000000000207e+00 1.662400000000000100e+00 8.833439999999999515e+00 5.991590000000000416e+00 1.352849999999999930e+01 8.203329999999999345e+00 1.473259999999999970e+01 6.361700000000000133e-01 8.586479999999999890e+00 1.443280000000000030e+01 1.362589999999999968e+01 1.054100000000000037e-01 2.637239999999999807e+00 1.024959999999999916e+01 1.720769999999999911e+01 3.028449999999999864e+00 2.283859999999999957e+01 1.735150000000000148e+01 1.116799999999999926e+01 9.836840000000000472e+00 1.727130000000000010e+01 1.153780000000000072e+01 2.322650000000000148e+01 8.937409999999999854e+00 2.403999999999999915e+00 9.848779999999999646e+00 8.528570000000000206e+00 2.517339999999999911e+00 2.307019999999999982e+01 8.842079999999999274e+00 1.160219999999999985e+01 9.404270000000000351e+00 9.052379999999999427e+00 1.116520000000000046e+01 2.200740000000000052e+01 2.877000000000000113e-01 6.561460000000000292e+00 5.686689999999999579e+00 1.363070000000000004e+00 7.259999999999999787e+00 1.865230000000000032e+01 1.731490000000000151e+01 1.559570000000000078e+01 5.084430000000000227e+00 1.726719999999999899e+01 1.614440000000000097e+01 1.745120000000000005e+01 9.282310000000000727e+00 6.929590000000000138e+00 5.386219999999999786e+00 9.121940000000000381e+00 6.505180000000000184e+00 1.740500000000000114e+01 8.707250000000000156e+00 1.613990000000000080e+01 4.707819999999999894e+00 8.319480000000000430e+00 1.574220000000000041e+01 1.803999999999999915e+01 5.300000000000000024e-03 2.290869999999999962e+00 1.174109999999999987e+00 1.727400000000000091e+01 2.608179999999999943e+00 1.407010000000000005e+01 2.361900000000000110e-01 1.056460000000000043e+01 1.003649999999999931e+00 1.737640000000000029e+01 1.120040000000000013e+01 1.373499999999999943e+01 8.894930000000000447e+00 2.926309999999999967e+00 1.255640000000000089e+00 9.061749999999999972e+00 2.570180000000000131e+00 1.362710000000000043e+01 8.637359999999999260e+00 1.116159999999999997e+01 1.213289999999999980e+00 8.664759999999999351e+00 1.095010000000000083e+01 1.405979999999999919e+01 1.325360000000000094e+00 8.723629999999999995e+00 7.900489999999999569e+00 8.841700000000000115e-01 9.754659999999999442e+00 2.088449999999999918e+01 1.260599999999999943e+00 1.741379999999999839e+01 7.373750000000000249e+00 1.671159999999999979e+00 1.734540000000000148e+01 1.964539999999999864e+01 1.022119999999999962e+01 8.854079999999999728e+00 7.633860000000000312e+00 1.071170000000000044e+01 8.578829999999999956e+00 1.994419999999999860e+01 1.028640000000000043e+01 4.277999999999999858e-02 7.196069999999999744e+00 1.031489999999999974e+01 4.948500000000000121e-01 2.006030000000000157e+01 1.836319999999999952e+00 4.811309999999999754e+00 3.444949999999999957e+00 2.091969999999999885e+00 4.728810000000000180e+00 1.648539999999999850e+01 1.760369999999999990e+00 1.264269999999999960e+01 3.649529999999999941e+00 1.678679999999999950e+00 1.317319999999999958e+01 1.681579999999999941e+01 1.059329999999999927e+01 4.470460000000000100e+00 4.139079999999999870e+00 1.040370000000000061e+01 4.141490000000000116e+00 1.599380000000000024e+01 1.062650000000000006e+01 1.322209999999999930e+01 2.859199999999999964e+00 1.002529999999999966e+01 1.295609999999999928e+01 1.609499999999999886e+01 1.795779999999999932e+00 3.867609999999999992e+00 7.791809999999999903e+00 1.772029999999999994e+00 4.338219999999999743e+00 2.066679999999999851e+01 1.740310000000000024e+00 1.325270000000000081e+01 7.630150000000000432e+00 1.796130000000000004e+00 1.294730000000000025e+01 2.056559999999999988e+01 1.029170000000000051e+01 3.888419999999999987e+00 7.279989999999999739e+00 1.052340000000000053e+01 4.216300000000000381e+00 2.042190000000000083e+01 1.077340000000000053e+01 1.323419999999999952e+01 7.608579999999999899e+00 1.058339999999999925e+01 1.335089999999999932e+01 1.990190000000000126e+01 3.032700000000000173e+00 9.062509999999999621e+00 1.145509999999999984e+01 2.815770000000000106e+00 8.234080000000000510e+00 2.414930000000000021e+01 2.502180000000000071e+00 2.079799999999999982e-01 1.106869999999999976e+01 1.864400000000000057e+00 1.749045999999999879e+01 2.344960000000000022e+01 1.070759999999999934e+01 8.748110000000000497e+00 1.150050000000000061e+01 1.145159999999999911e+01 8.529210000000000846e+00 2.343380000000000152e+01 1.088899999999999935e+01 1.723600000000000132e-01 1.168260000000000076e+01 1.144490000000000052e+01 1.747469999999999857e+01 2.347919999999999874e+01 2.167780000000000040e+00 1.714270000000000138e+01 2.618590000000000195e+00 2.752940000000000165e+00 4.612999999999999740e-02 1.527200000000000024e+01 2.684579999999999966e+00 8.306839999999999336e+00 2.792710000000000026e+00 2.661080000000000112e+00 8.156969999999999388e+00 1.506419999999999959e+01 1.156039999999999957e+01 1.728780000000000072e+01 2.029380000000000184e+00 1.119100000000000072e+01 2.437000000000000000e-01 1.562659999999999982e+01 1.164739999999999931e+01 8.888450000000000628e+00 2.297050000000000036e+00 1.151980000000000004e+01 8.467570000000000263e+00 1.532549999999999990e+01 2.957380000000000120e+00 4.719059999999999810e+00 1.112780000000000058e+01 2.420139999999999958e+00 4.376089999999999591e+00 2.452890000000000015e+01 2.817579999999999973e+00 1.290199999999999925e+01 1.108280000000000065e+01 2.891379999999999839e+00 1.267229999999999990e+01 2.376940000000000097e+01 1.149060000000000059e+01 4.631170000000000009e+00 1.128069999999999951e+01 1.140499999999999936e+01 4.593580000000000219e+00 2.402179999999999893e+01 1.132939999999999969e+01 1.304909999999999926e+01 1.197109999999999985e+01 1.113490000000000002e+01 1.323930000000000007e+01 2.406899999999999906e+01 4.290239999999999831e+00 6.998529999999999696e+00 5.696930000000000049e+00 4.960040000000000227e+00 7.033330000000000304e+00 1.766880000000000095e+01 4.355970000000000120e+00 1.553190000000000026e+01 4.878239999999999910e+00 4.245700000000000252e+00 1.585759999999999970e+01 1.775750000000000028e+01 1.322760000000000069e+01 7.213160000000000238e+00 4.851820000000000022e+00 1.282890000000000086e+01 7.043459999999999610e+00 1.832839999999999847e+01 1.268479999999999919e+01 1.517890000000000050e+01 4.558040000000000092e+00 1.350859999999999950e+01 1.592859999999999943e+01 1.768489999999999895e+01 4.205040000000000333e+00 2.745629999999999793e+00 1.513859999999999983e+00 4.158559999999999590e+00 2.639489999999999892e+00 1.350750000000000028e+01 4.762570000000000192e+00 1.112689999999999912e+01 1.307279999999999998e+00 3.221080000000000165e+00 1.167190000000000083e+01 1.410609999999999964e+01 1.266119999999999912e+01 2.881699999999999928e+00 1.460790000000000033e+00 1.332440000000000069e+01 3.136270000000000113e+00 1.335590000000000011e+01 1.348579999999999934e+01 1.152899999999999991e+01 1.708899999999999864e-01 1.329420000000000002e+01 1.138860000000000028e+01 1.422860000000000014e+01 4.138620000000000410e+00 6.889300000000000423e+00 9.145020000000000593e+00 4.228049999999999642e+00 6.632719999999999949e+00 2.094600000000000151e+01 4.151570000000000427e+00 1.574329999999999963e+01 8.626530000000000697e+00 4.482569999999999943e+00 1.593180000000000085e+01 2.127139999999999986e+01 1.286519999999999975e+01 6.903410000000000046e+00 8.916840000000000543e+00 1.357150000000000034e+01 7.027099999999999902e+00 2.161420000000000030e+01 1.322749999999999915e+01 1.618980000000000175e+01 8.865190000000000126e+00 1.306949999999999967e+01 1.622240000000000038e+01 2.073890000000000100e+01 4.834909999999999819e+00 6.025079999999999991e+00 1.207770000000000010e+00 4.606749999999999901e+00 6.012109999999999843e+00 1.382230000000000025e+01 4.036059999999999981e+00 1.443699999999999939e+01 8.654399999999999871e-01 4.494849999999999568e+00 1.463879999999999981e+01 1.316080000000000005e+01 1.337839999999999918e+01 6.252880000000000216e+00 9.032000000000000028e-01 1.305039999999999978e+01 6.273830000000000240e+00 1.386509999999999998e+01 1.338790000000000013e+01 1.471790000000000020e+01 8.222199999999999509e-01 1.345159999999999911e+01 1.466019999999999968e+01 1.400370000000000026e+01 4.115429999999999922e+00 1.947319999999999940e+00 4.979409999999999670e+00 4.440349999999999575e+00 2.250249999999999861e+00 1.751099999999999923e+01 4.128269999999999662e+00 1.066099999999999959e+01 5.309000000000000163e+00 4.266910000000000203e+00 1.009050000000000047e+01 1.766929999999999978e+01 1.317539999999999978e+01 1.369059999999999944e+00 4.661889999999999645e+00 1.328480000000000061e+01 1.757479999999999931e+00 1.736039999999999850e+01 1.281910000000000061e+01 1.068410000000000082e+01 4.733270000000000088e+00 1.310490000000000066e+01 1.043929999999999936e+01 1.759049999999999869e+01 4.918479999999999741e+00 1.975740000000000052e+00 8.694350000000000023e+00 4.308860000000000134e+00 2.131279999999999841e+00 2.147360000000000113e+01 4.536489999999999689e+00 1.020870000000000033e+01 8.639210000000000278e+00 4.544360000000000177e+00 1.025910000000000011e+01 2.151379999999999981e+01 1.308859999999999957e+01 2.029259999999999842e+00 8.911559999999999704e+00 1.286790000000000056e+01 1.855969999999999898e+00 2.125829999999999842e+01 1.296899999999999942e+01 1.070279999999999987e+01 9.041000000000000369e+00 1.328369999999999962e+01 1.033810000000000073e+01 2.148280000000000101e+01 6.250119999999999898e+00 3.886200000000000099e+00 1.182290000000000063e+01 5.905520000000000103e+00 4.120390000000000441e+00 2.412140000000000128e+01 5.712220000000000297e+00 1.169020000000000081e+01 1.174840000000000018e+01 5.864690000000000403e+00 1.302229999999999954e+01 2.391430000000000078e+01 1.497589999999999932e+01 4.917060000000000208e+00 1.124569999999999936e+01 1.470570000000000022e+01 4.047200000000000131e+00 2.414529999999999887e+01 1.451110000000000078e+01 1.284619999999999962e+01 1.143140000000000001e+01 1.389400000000000013e+01 1.413460000000000072e+01 2.293629999999999924e+01 5.993400000000000283e+00 1.731830000000000069e+01 2.300359999999999960e+00 6.313659999999999606e+00 2.935699999999999976e-01 1.528889999999999993e+01 6.062960000000000349e+00 8.404090000000000060e+00 2.692790000000000017e+00 6.400030000000000108e+00 8.472239999999999327e+00 1.542800000000000082e+01 1.482460000000000022e+01 1.713169999999999860e+01 2.824710000000000054e+00 1.466080000000000005e+01 5.369999999999999774e-02 1.503599999999999959e+01 1.512040000000000006e+01 8.833470000000000155e+00 2.722069999999999990e+00 1.475789999999999935e+01 8.287430000000000518e+00 1.580090000000000039e+01 6.407280000000000086e+00 8.413349999999999440e+00 1.079840000000000089e+01 6.195090000000000430e+00 8.165309999999999846e+00 2.372680000000000078e+01 6.020649999999999835e+00 1.728350000000000009e+01 1.126319999999999943e+01 5.526860000000000106e+00 1.726200000000000045e+01 2.429400000000000048e+01 1.437490000000000023e+01 8.535709999999999908e+00 1.153889999999999993e+01 1.512439999999999962e+01 8.785090000000000288e+00 2.369709999999999894e+01 1.478240000000000087e+01 1.499300000000000077e-01 1.200380000000000003e+01 1.491329999999999956e+01 1.620800000000000018e-01 2.327550000000000097e+01 7.028069999999999595e+00 4.578289999999999971e+00 4.215440000000000076e+00 7.050189999999999735e+00 3.761340000000000128e+00 1.581119999999999948e+01 7.382340000000000124e+00 1.307259999999999955e+01 3.613290000000000113e+00 7.098889999999999922e+00 1.260260000000000069e+01 1.654149999999999920e+01 1.577749999999999986e+01 4.349420000000000286e+00 3.458260000000000112e+00 1.546340000000000003e+01 4.413540000000000241e+00 1.655499999999999972e+01 1.573959999999999937e+01 1.263630000000000031e+01 3.625269999999999992e+00 1.568580000000000041e+01 1.314310000000000045e+01 1.659669999999999845e+01 6.954679999999999751e+00 8.653169999999999362e+00 7.293809999999999683e+00 7.439829999999999721e+00 8.545989999999999753e+00 1.987959999999999994e+01 6.816279999999999895e+00 1.671799999999999953e-01 7.090970000000000439e+00 6.896370000000000111e+00 5.445999999999999730e-01 2.057239999999999824e+01 1.538439999999999941e+01 8.584880000000000067e+00 7.133650000000000269e+00 1.569589999999999996e+01 8.259750000000000369e+00 1.926670000000000016e+01 1.524140000000000050e+01 1.731869999999999976e+01 7.021849999999999703e+00 1.594929999999999914e+01 5.082499999999999796e-01 2.012630000000000052e+01 6.855269999999999975e+00 4.361270000000000202e+00 8.057389999999999830e+00 6.605260000000000353e+00 4.597929999999999851e+00 2.075159999999999982e+01 7.167010000000000325e+00 1.334590000000000032e+01 7.229449999999999932e+00 6.634009999999999962e+00 1.309430000000000049e+01 1.986980000000000146e+01 1.583639999999999937e+01 3.903300000000000214e+00 7.300950000000000273e+00 1.568890000000000029e+01 4.985750000000000348e+00 2.026239999999999952e+01 1.531000000000000050e+01 1.323889999999999922e+01 7.765520000000000422e+00 1.595149999999999935e+01 1.247209999999999930e+01 2.017379999999999995e+01 8.801389999999999603e+00 1.755370000000000097e+00 4.850010000000000154e+00 8.107450000000000045e+00 1.919699999999999962e+00 1.776589999999999847e+01 8.704390000000000072e+00 1.024799999999999933e+01 4.981880000000000308e+00 8.993819999999999482e+00 1.006770000000000032e+01 1.750979999999999848e+01 1.712890000000000157e+01 1.506269999999999998e+00 4.924080000000000013e+00 6.548500000000000432e-01 2.058250000000000135e+00 1.767610000000000170e+01 1.733539999999999992e+01 9.956179999999999808e+00 5.039310000000000400e+00 2.521700000000000053e-01 1.012889999999999979e+01 1.736110000000000042e+01 9.150669999999999860e+00 5.854320000000000412e+00 9.644280000000000186e+00 9.250260000000000815e+00 6.467469999999999608e+00 2.279029999999999845e+01 8.704399999999999693e+00 1.495020000000000060e+01 9.730959999999999610e+00 8.554669999999999774e+00 1.482049999999999912e+01 2.234840000000000160e+01 1.725230000000000175e+01 6.045090000000000074e+00 9.443239999999999412e+00 1.730920000000000059e+01 6.617860000000000298e+00 2.240640000000000143e+01 1.736199999999999832e+01 1.485249999999999915e+01 1.039480000000000004e+01 1.733599999999999852e+01 1.500660000000000061e+01 2.226920000000000144e+01