-1.665289743499999986e+03
-1.663556330180000032e+03
-1.659163737950000041e+03
-1.659711736490000021e+03
-1.661092435380000097e+03
-1.659835222969999904e+03
-1.663178594389999944e+03
-1.668016958650000106e+03
-1.663250902770000039e+03
-1.661875456060000033e+03
-1.657831915550000076e+03
-1.659143074479999996e+03
-1.664110063159999982e+03
-1.658312019799999916e+03
-1.660296925749999900e+03
-1.662764309590000039e+03
-1.662898879289999968e+03
-1.657534929169999941e+03
-1.657520747009999923e+03
-1.658253987110000025e+03
-1.663986222049999924e+03
-1.679235286289999976e+03
-1.664685080980000066e+03
-1.666288734969999950e+03
-1.660919134179999901e+03
-1.662936306439999953e+03
-1.661743666200000007e+03
-1.657673607499999889e+03
-1.667400462699999935e+03
-1.663960191099999975e+03
-1.657827885859999924e+03
-1.660727847899999915e+03
-1.660181880739999997e+03
-1.677483915239999988e+03
-1.667263622039999973e+03
-1.665238064469999927e+03
-1.656101249540000026e+03
-1.662179616549999992e+03
-1.664258217860000059e+03
-1.662942977489999976e+03
-1.660917105239999955e+03
-1.659696243899999899e+03
-1.659234085080000114e+03
-1.692202388079999992e+03
-1.662657207040000003e+03
-1.661365449149999904e+03
-1.661752022520000082e+03
-1.661358528190000015e+03
-1.659398885269999937e+03
-1.660548040379999975e+03
-1.660622656660000075e+03
-1.679521828460000052e+03
-1.660327288709999948e+03
-1.658131596850000051e+03
-1.659999323389999972e+03
-1.662291283889999931e+03
-1.664636426519999986e+03
-1.663922145479999926e+03
-1.660976780120000058e+03
-1.657833790989999898e+03
-1.662465295349999906e+03
-1.663574163779999935e+03
-1.664724741640000047e+03
-1.658515158960000008e+03
-1.658894484220000095e+03
-1.659231421910000108e+03
-1.657218229900000097e+03
-1.660206079419999924e+03
-1.660935083520000035e+03
-1.664632885049999913e+03
-1.658590655369999922e+03
-1.660240721090000079e+03
-1.667064305469999908e+03
-1.655472592670000040e+03
-1.656897934939999914e+03
-1.660770388639999965e+03
-1.661667858109999997e+03
-1.659633022900000014e+03
-1.664011567810000088e+03
-1.657988801680000051e+03
-1.677435436420000087e+03
-1.664829104850000022e+03
-1.665513132499999983e+03
-1.663025276829999939e+03
-1.678974478849999969e+03
-1.661258996260000004e+03
-1.662066811539999890e+03
-1.678597209179999936e+03
-1.663816420729999891e+03
-1.662587431039999956e+03
-1.660666340380000065e+03
-1.660778561939999918e+03
-1.661773051529999975e+03
-1.666394103939999923e+03
-1.675811791849999963e+03
-1.658415250020000030e+03
-1.657829384529999970e+03
-1.664912679699999899e+03
-1.661444075489999932e+03
-1.661160536009999987e+03
-1.656104441729999962e+03
-1.654783447459999934e+03
-1.662487429640000073e+03
-1.663147860390000005e+03
-1.674476246360000005e+03
-1.662949923149999904e+03
-1.664598414090000006e+03
-1.662361254460000055e+03
-1.659923004389999960e+03
-1.661278586910000058e+03
-1.652778626199999962e+03
-1.659533051780000051e+03
-1.663868323109999892e+03
-1.667879183519999970e+03
-1.662422013430000106e+03
-1.661732538149999982e+03
-1.666945124329999999e+03
-1.660365213260000019e+03
-1.657853862359999994e+03
-1.658122377180000058e+03
-1.661334308319999991e+03
-1.659895878909999965e+03
-1.679064243600000054e+03
-1.660724234499999966e+03
-1.676587805469999921e+03
-1.661591582049999943e+03
-1.653892224550000037e+03
-1.663788382550000051e+03
-1.682012206670000069e+03
-1.660960186159999921e+03
-1.669416198670000085e+03
-1.658620909889999893e+03
-1.663288312489999953e+03
-1.659170468439999922e+03
-1.663165826859999925e+03
-1.659742590820000032e+03
-1.666621011299999964e+03
