-1.663702993560000095e+03
-1.655536243519999971e+03
-1.663158998950000068e+03
-1.663063300159999926e+03
-1.663820466310000029e+03
-1.659635661040000059e+03
-1.661938638300000093e+03
-1.662130276000000094e+03
-1.662678383899999972e+03
-1.667759864289999996e+03
-1.661994112650000034e+03
-1.659531625079999912e+03
-1.664928409749999901e+03
-1.664689709830000083e+03
-1.666487475720000020e+03
-1.661889597359999925e+03
-1.662732874869999932e+03
-1.657663907359999939e+03
-1.659461018899999999e+03
-1.664599766779999982e+03
-1.663059223349999911e+03
-1.662271022780000067e+03
-1.665175669969999944e+03
-1.666079066130000001e+03
-1.660495354720000023e+03
-1.658757970699999987e+03
-1.659392619550000063e+03
-1.662560096089999888e+03
-1.663197943209999949e+03
-1.663634904530000085e+03
-1.657679776360000005e+03
-1.662290603559999909e+03
-1.661113100580000037e+03
-1.684312108939999916e+03
-1.661820911519999981e+03
-1.658640938580000011e+03
-1.661246135030000005e+03
-1.660041214480000008e+03
-1.663214809999999943e+03
-1.661663589270000102e+03
-1.661761579010000105e+03
-1.662756854799999928e+03
-1.661718699040000047e+03
-1.658226202009999952e+03
-1.668427222889999939e+03
-1.665903010929999937e+03
-1.666590188240000089e+03
-1.661962122099999988e+03
-1.663171359969999912e+03
-1.659951797539999916e+03
-1.662839704019999999e+03
-1.670095631740000044e+03
-1.658643779320000021e+03
-1.662043626189999941e+03
-1.666634341980000045e+03
-1.660018029710000064e+03
-1.665548712100000103e+03
-1.657854997749999939e+03
-1.665163595479999913e+03
-1.664783576620000076e+03
-1.668311198569999988e+03
-1.664749302480000097e+03
-1.663991016259999924e+03
-1.664298664420000023e+03
-1.659610551609999902e+03
-1.665214146649999975e+03
-1.660826462069999934e+03
-1.662628622259999929e+03
-1.658118142020000050e+03
-1.663133855510000103e+03
-1.660777624170000081e+03
-1.662802537810000103e+03
-1.656375221739999915e+03
-1.661603451519999908e+03
-1.661066777239999965e+03
-1.681535171819999960e+03
-1.665379200780000019e+03
-1.664596055839999963e+03
-1.660441806880000058e+03
-1.663676248600000008e+03
-1.661284193629999891e+03
-1.656195581669999910e+03
-1.660915619200000037e+03
-1.662971549679999953e+03
-1.666284081669999978e+03
-1.669232316009999977e+03
-1.658507643559999906e+03
-1.665306545039999946e+03
-1.659437719819999984e+03
-1.679571518920000017e+03
-1.665530554059999986e+03
-1.658398631990000013e+03
-1.657989248690000068e+03
-1.665427623110000013e+03
-1.681613995939999995e+03
-1.658905974020000031e+03
-1.661264602960000047e+03
-1.658839265970000042e+03
-1.662186061979999977e+03
-1.664516318060000003e+03
-1.658097969129999910e+03
-1.657386008510000011e+03
-1.662985447400000112e+03
-1.663017495820000022e+03
-1.663309807220000039e+03
-1.662230326840000089e+03
-1.663920876140000018e+03
-1.661467211910000060e+03
-1.663331087130000014e+03
-1.661909124849999898e+03
-1.679618981029999986e+03
-1.660042581850000033e+03
-1.662177950020000026e+03
-1.660470845170000075e+03
-1.663221436150000045e+03
-1.663678144830000065e+03
-1.659182112550000056e+03
-1.663010109600000078e+03
-1.656702904570000101e+03
-1.657959542090000014e+03
-1.669401789920000056e+03
-1.663479929039999888e+03
-1.667618461990000014e+03
-1.664255865229999927e+03
-1.661808159180000075e+03
-1.662949293899999930e+03
-1.665507983490000015e+03
-1.661935040860000072e+03
-1.662691754160000073e+03
-1.661982453849999956e+03
-1.662738267210000004e+03
-1.662627915020000046e+03
-1.664425710980000076e+03
-1.664019543139999996e+03
