1.232669999999999932e+00 7.937199999999999811e+00 9.313330000000000553e+00 4.629749999999999588e+00 8.030780000000000030e+00 8.935699999999999754e-01 1.675039999999999907e+01 3.827240000000000197e+00 6.246660000000000323e+00 1.541600000000000037e+01 2.270000000000000018e+00 1.830959999999999965e+01 1.074070000000000036e+01 7.095539999999999736e+00 4.186009999999999565e+00 1.501800000000000068e+01 1.537739999999999974e+01 1.803900000000000148e+01 1.099349999999999916e+01 6.534880000000000244e+00 1.100519999999999943e+00 1.088100000000000023e+01 1.071059999999999945e+01 1.150830000000000020e+01 2.009199999999999875e+00 6.424360000000000070e+00 5.823400000000000354e+00 2.496140000000000025e+00 2.371469999999999967e+00 1.068299999999999983e+01 1.343779999999999930e+01 5.146550000000000402e+00 9.721709999999999852e+00 5.076300000000000257e-01 3.911890000000000089e+00 2.477090000000000103e+01 6.746470000000000411e+00 1.536930000000000085e+01 3.791700000000000070e+00 6.556320000000000370e+00 1.529470000000000063e+01 8.890700000000000269e-01 7.474350000000000271e+00 1.694010000000000016e+00 1.228679999999999950e+01 1.097940000000000005e+01 1.122519999999999918e+01 5.541710000000000136e+00 1.071870000000000012e+01 1.081559999999999988e+01 2.398610000000000042e+01 9.298909999999999343e+00 9.036369999999999791e+00 2.187790000000000035e+01 4.747379999999999711e+00 1.715780000000000172e+01 7.217979999999999841e+00 6.593090000000000117e+00 1.114179999999999993e+01 1.885889999999999844e+01 2.811539999999999928e+00 1.486500000000000021e+01 3.521590000000000220e+00 1.526290000000000013e+01 2.013230000000000075e+00 1.399649999999999928e+01 6.579080000000000261e+00 1.645690000000000097e+00 2.509260000000000090e+01 8.702510000000000190e+00 8.813969999999999416e+00 1.550990000000000002e+01 3.858620000000000161e+00 3.560160000000000213e+00 3.662100000000000133e+00 1.087579999999999991e+01 1.841040000000000010e+00 1.602809999999999846e+01 2.437669999999999781e+00 1.045340000000000025e+01 2.568699999999999872e-01 1.648560000000000025e+00 1.113829999999999920e+01 1.233840000000000003e+01 6.216759999999999842e+00 6.119369999999999976e+00 1.460739999999999927e+00 1.316440000000000055e+01 3.740999999999999881e-01 1.930150000000000077e+01 8.550769999999999982e+00 8.219519999999999271e+00 2.487270000000000092e+00 1.115080000000000027e+01 1.121410000000000018e+01 1.929119999999999990e+01 1.460350000000000037e+00 1.076260000000000083e+01 9.003030000000000754e+00 1.580819999999999936e+01 2.219510000000000094e+00 1.142060000000000031e+01 2.713200000000000056e+00 1.049900000000000055e+01 6.145539999999999559e+00 1.514209999999999923e+01 1.529010000000000069e+01 1.503030000000000044e+01 5.899200000000000443e+00 1.497439999999999927e+01 1.538410000000000011e+01 1.293960000000000043e+01 2.624000000000000221e-01 6.632200000000000317e-01 1.097659999999999947e+01 1.090610000000000035e+01 1.521340000000000003e+01 8.852600000000000691e+00 1.326200000000000045e+01 2.483030000000000115e+01 2.321509999999999962e+00 2.341169999999999973e+00 1.679810000000000025e+00 1.709219999999999828e+01 5.081550000000000011e+00 1.870260000000000034e+01 1.722970000000000113e+01 1.280160000000000053e+01 2.453709999999999880e+01 4.946800000000000086e-01 4.709200000000000053e-01 1.592169999999999952e+01 6.152449999999999974e+00 5.671560000000000379e+00 8.579700000000000770e+00 1.373220000000000063e+01 8.497560000000000002e+00 1.937740000000000151e+01 1.064489999999999981e+01 1.564039999999999964e+01 8.003809999999999647e+00 1.033639999999999937e+01 1.596850000000000058e+01 1.207109999999999950e+01 3.330740000000000034e+00 4.947969999999999757e+00 9.323740000000000805e+00 2.526990000000000069e+00 1.424290000000000056e+01 9.711240000000000094e+00 6.001159999999999606e+00 1.324750000000000050e+01 2.204260000000000019e+01 2.832100000000000062e+00 1.446879999999999988e+01 6.214360000000000106e+00 9.016870000000000829e+00 4.789589999999999570e+00 2.425019999999999953e+01 1.008980000000000032e+01 6.766020000000000145e+00 9.385360000000000369e+00 1.572639999999999993e+01 1.533440000000000047e+01 2.475670000000000037e+00 1.200140000000000029e+01 8.019890000000000185e+00 1.334989999999999988e+01 4.474579999999999558e+00 4.236999999999999794e-02 2.058709999999999951e+01 3.845720000000000027e+00 1.194159999999999933e+01 1.578919999999999924e+01 2.435449999999999893e+00 6.251960000000000406e+00 2.484840000000000160e+00 1.983270000000000088e+00 6.506730000000000125e+00 1.547649999999999970e+01 8.597950000000000870e+00 4.280050000000000132e+00 5.092290000000000205e+00 8.925209999999999866e+00 9.962000000000000022e-02 9.390349999999999753e+00 1.097220000000000084e+01 1.132649999999999935e+01 1.964720000000000022e+00 4.435229999999999784e+00 9.150679999999999481e+00 1.937199999999999989e+01 1.484019999999999939e+01 9.747579999999999245e+00 9.590230000000000032e+00 4.097520000000000273e+00 5.406950000000000145e+00 1.617020000000000124e+01 8.421910000000000451e+00 1.250689999999999991e+01 5.832169999999999632e+00 2.515080000000000204e+00 1.114690000000000047e+01 2.162719999999999843e+01 1.702129999999999921e+00 1.464739999999999931e+01 2.518639999999999901e+01 1.297220000000000084e+01 8.561579999999999302e+00 2.292399999999999993e-01 6.709859999999999935e+00 6.161889999999999645e+00 5.194890000000000008e+00 1.528229999999999933e+01 1.518140000000000001e+01 2.037890000000000157e+01 2.536669999999999980e+00 1.557579999999999920e+01 1.890299999999999869e+01 6.347909999999999719e+00 6.507889999999999731e+00 1.567789999999999928e+01 2.467169999999999863e+00 2.967880000000000074e+00 1.423019999999999996e+01 6.362870000000000026e+00 2.223250000000000171e+00 8.996489999999999654e+00 1.481349999999999945e+01 5.902730000000000032e+00 2.200280000000000058e+01 9.231479999999999464e+00 5.032989999999999853e+00 1.187219999999999942e+01 1.058380000000000010e+01 2.275079999999999991e+00 2.455799999999999983e+01 1.023349999999999937e+01 2.317839999999999900e+00 1.276040000000000063e+01 1.255569999999999986e+01 8.636449999999999960e+00 6.875429999999999708e+00 1.043009999999999948e+01 6.891070000000000029e+00 2.099930000000000163e+01 1.051050000000000040e+01 2.406419999999999781e+00 6.280260000000000176e+00 7.339240000000000208e+00 1.548969999999999914e+01 7.881129999999999747e+00 1.457779999999999987e+01 1.151110000000000078e+01 3.834900000000000198e+00 1.565220000000000056e+01 1.090850000000000009e+01 1.915439999999999898e+01 1.818910000000000027e+00 1.557690000000000019e+01 2.208810000000000073e+01 1.571749999999999936e+01 6.618759999999999977e+00 1.635979999999999990e+01 6.468189999999999884e+00 2.078980000000000050e+00 2.200509999999999877e+01 1.074770000000000003e+01 1.497470000000000034e+01 2.199970000000000070e+01 1.098070000000000057e+01 6.293020000000000280e+00 6.999690000000000190e+00 6.102590000000000181e+00 6.088650000000000340e+00 2.309270000000000067e+01 1.294769999999999932e+01 1.670189999999999841e+01 1.296690000000000076e+01 1.531630000000000003e+01 2.541059999999999874e+00 1.819600000000000106e-01 1.537540000000000084e+01 1.078320000000000078e+01 1.240199999999999925e+01 1.529550000000000054e+01 1.059029999999999916e+01 2.157039999999999935e+01 1.424469999999999903e+00 9.683100000000000041e-01 2.240129999999999910e+01 1.070969999999999978e+01 7.141899999999999693e+00 1.783800000000000097e+01 3.494200000000000084e-01 8.942130000000000578e+00 3.158139999999999947e+00 1.700750000000000028e+01 1.298380000000000045e+01 5.618689999999999962e+00 1.183270000000000088e+01 4.786439999999999806e+00 2.153389999999999915e+01 8.680120000000000502e+00 1.539300000000000113e-01 1.603600000000000136e+01 7.997779999999999667e+00 8.095869999999999678e+00 9.155179999999999652e+00 5.172099999999999476e-01 9.457470000000000709e+00 1.553260000000000041e+01 2.534530000000000172e+00 1.425049999999999928e+00 7.240050000000000097e+00 2.498369999999999980e+00 6.048939999999999984e+00 2.356810000000000116e+01 8.770899999999999253e+00 1.347400000000000020e+01 1.826569999999999894e+01 1.057750000000000057e+01 1.533619999999999983e+01 1.886510000000000176e+01 1.507370000000000054e+01 6.191670000000000229e+00 1.381170000000000009e+01 1.382489999999999952e+01 1.204039999999999999e+01 1.619889999999999830e+01 1.514969999999999928e+01 6.588560000000000194e+00 3.602570000000000050e+00 1.168989999999999974e+01 1.490320000000000000e+01 1.548980000000000068e+01 8.881999999999999618e-02 4.076699999999999768e-01 3.449120000000000186e+00 7.018309999999999604e+00 1.106209999999999916e+01 1.576329999999999920e+01 6.427749999999999631e+00 1.039899999999999913e+01 3.588799999999999990e+00 1.041440000000000055e+01 2.055909999999999904e+00 3.061129999999999907e+00 1.095710000000000051e+01 2.005009999999999959e+00 1.965289999999999893e+01 1.317500000000000071e+01 1.308200000000000074e+01 8.665240000000000720e+00 1.526490000000000080e+01 1.557680000000000042e+01 4.867519999999999847e+00 1.550430000000000064e+01 1.490249999999999986e+01 9.166349999999999554e+00 1.048610000000000042e+01 1.496340000000000003e+01 3.956869999999999887e+00 2.397710000000000008e+00 2.344050000000000189e+00 1.865040000000000120e+01 3.623969999999999914e+00 1.180760000000000076e+01 3.237319999999999975e+00 5.888259999999999827e+00 6.583389999999999631e+00 2.014989999999999881e+01 4.990459999999999674e+00 1.193319999999999936e+01 9.739319999999999311e+00 5.077670000000000350e+00 3.926100000000000145e-01 1.353580000000000005e+01 4.133899999999999797e-01 1.727250000000000085e+01 9.330080000000000595e+00 1.302929999999999922e+01 3.994689999999999852e+00 1.614839999999999876e+01 6.402110000000000412e+00 2.102549999999999919e+00 3.617760000000000087e+00 6.086789999999999701e+00 1.608810000000000073e+01 1.985800000000000054e+01 2.386519999999999975e+00 1.145250000000000057e+01 1.858950000000000102e+01 6.944869999999999877e+00 1.519819999999999993e+01 1.248380000000000045e+01 1.095759999999999934e+01 2.219850000000000101e+00 9.650430000000000064e+00 1.720439999999999969e+01 4.477619999999999933e+00 1.198910000000000053e+01 1.670129999999999981e+01 1.315049999999999919e+01 1.183319999999999972e+01 2.140579999999999927e+00 1.506000000000000050e+01 1.597879999999999967e+01 6.459100000000000286e+00 2.322579999999999867e+00 1.590099999999999980e+01 8.211819999999999453e+00 4.075289999999999857e+00 1.861990000000000123e+01 8.566209999999999880e+00 1.304020000000000046e+01 1.217789999999999928e+01 6.945630000000000415e+00 1.128899999999999970e+01 2.511489999999999867e+01 1.479209999999999958e+01 6.196080000000000254e+00 6.713689999999999714e+00 1.353979999999999961e+01 1.319740000000000002e+01 2.285249999999999915e+01 1.607440000000000069e+01 1.745349999999999957e+00 7.775949999999999918e+00 1.514039999999999964e+01 6.802810000000000024e+00 4.970499999999999918e-01 4.172600000000000087e+00 7.965580000000000105e+00 6.655199999999999783e+00 8.786350000000000549e+00 1.705010000000000048e+01 2.253330000000000055e+01 1.245819999999999972e+01 3.479000000000000148e-02 7.097800000000000331e+00 6.650750000000000384e+00 1.103759999999999941e+01 1.212190000000000012e+01 1.475360000000000049e+01 2.168320000000000025e+00 2.238939999999999841e+01 2.555180000000000007e+00 6.486500000000000377e+00 1.972810000000000130e+01 1.477860000000000085e+01 1.052769999999999939e+01 7.176700000000000301e+00 3.460900000000000087e-01 1.360880000000000045e+01 1.849520000000000053e+01 4.400150000000000006e+00 8.405620000000000758e+00 1.324169999999999980e+01 2.303800000000000014e-01 8.547760000000000247e+00 2.241110000000000113e+01 6.649680000000000035e+00 1.047789999999999999e+01 7.791199999999999903e+00 1.097659999999999947e+01 1.536630000000000074e+01 1.027439999999999909e+00 1.708110000000000017e+00 6.968829999999999636e+00 1.240850000000000009e+01 1.366779999999999973e+01 2.769070000000000142e+00 3.434810000000000141e+00 2.432129999999999903e+00 1.456039999999999957e+01 1.260849999999999937e+01 1.600000000000000000e+01 1.034190000000000076e+01 4.068899999999999739e-01 4.527790000000000425e+00 8.605990000000000251e+00 9.758770000000000167e+00 1.292229999999999990e+01 8.647009999999999863e+00 2.230610000000000070e+01 8.747569999999999624e+00 4.377169999999999561e+00 2.320749999999999869e+00 8.896929999999999339e+00 1.302599999999999980e+01 2.594199999999999839e+00 9.185180000000000788e+00 1.311529999999999951e+01 1.530100000000000016e+01 1.062700000000000033e-01 4.490099999999999980e+00 1.508789999999999942e+01 1.074399999999999938e-01 1.296480000000000032e+01 1.522930000000000028e+01 1.735549999999999926e+01 4.804439999999999600e+00 8.894270000000000564e+00 1.731090000000000018e+01 4.178670000000000329e+00 2.177880000000000038e+01 8.869999999999999413e-03 1.264910000000000068e+01 8.837659999999999627e+00 1.733170000000000144e+01 1.334179999999999922e+01 2.128519999999999968e+01 8.689220000000000610e+00 4.041890000000000427e+00 8.668240000000000833e+00 4.310310000000000308e+00 8.324949999999999406e+00 3.571889999999999787e+00 4.736589999999999634e+00 8.851850000000000662e+00 1.653910000000000124e+01 1.324499999999999922e+01 2.191099999999999992e-01 1.646610000000000085e+01 1.314899999999999913e+01 8.475120000000000431e+00 3.452020000000000088e+00 4.368170000000000108e+00 8.699310000000000542e+00 2.292630000000000123e+01 4.319650000000000212e+00 1.723839999999999861e+01 1.024929999999999986e+01 4.364169999999999661e+00 1.693199999999999861e+01 2.314329999999999998e+01 1.229190000000000005e+01 8.359450000000000713e+00 1.006439999999999912e+01 1.286589999999999989e+01 2.108500000000000096e-01 1.004700000000000060e+01 1.277619999999999933e+01 1.713100000000000023e+01 2.272560000000000002e+01 8.758559999999999235e+00 4.463610000000000078e+00 1.535149999999999970e+01 1.190699999999999953e-01 4.199160000000000004e+00 2.982680000000000220e+00 9.478999999999999926e-02 1.289639999999999986e+01 2.708050000000000068e+00 8.528399999999999537e+00 4.710139999999999993e+00 2.119359999999999999e+01 9.023649999999999949e+00 1.282729999999999926e+01 9.065839999999999677e+00 8.965680000000000760e+00 1.297760000000000069e+01 2.164639999999999986e+01 4.502860000000000085e+00 1.731700000000000017e+01 3.849070000000000213e+00 4.351340000000000430e+00 1.865600000000000036e-01 1.646849999999999881e+01 1.305550000000000033e+01 1.726520000000000010e+01 4.089590000000000281e+00 1.324579999999999913e+01 8.535140000000000171e+00 1.626079999999999970e+01 4.663140000000000285e+00 4.644840000000000302e+00 1.276500000000000057e+01 4.230500000000000149e+00 4.008510000000000240e+00 1.250300000000000022e-01 4.498859999999999637e+00 1.290039999999999942e+01 1.277870000000000061e+01 4.642780000000000129e+00 1.289269999999999960e+01 1.992500000000000104e-01 1.282939999999999969e+01 4.301409999999999734e+00 1.280359999999999943e+01 1.291380000000000017e+01 4.419330000000000425e+00 3.182999999999999718e-02 1.286219999999999963e+01 1.276960000000000051e+01 1.248700000000000010e+01 1.340770000000000017e+01 1.293740000000000023e+01 1.626400000000000068e-01 8.373200000000000642e+00 8.300079999999999458e+00 6.377830000000000332e+00 8.327939999999999898e+00 8.886639999999999873e+00 1.877599999999999980e+01 8.617610000000000881e+00 3.818799999999999972e-01 6.262909999999999755e+00 8.951119999999999521e+00 2.462300000000000044e-01 1.930509999999999948e+01 1.677740000000000009e+01 8.563739999999999242e+00 6.347249999999999837e+00 4.144999999999999796e-01 8.714909999999999712e+00 1.903760000000000119e+01 4.268600000000000172e-01 1.722419999999999973e+01 6.442040000000000433e+00 2.900000000000000147e-02 2.816400000000000015e-01 1.907809999999999917e+01 1.737490000000000023e+01 5.950079999999999814e+00 1.881890000000000063e+00 2.313000000000000056e-01 6.460200000000000387e+00 1.416409999999999947e+01 5.181799999999999740e-01 1.488710000000000022e+01 1.724609999999999976e+00 4.716099999999999737e-01 1.456320000000000014e+01 1.370199999999999996e+01 8.729490000000000194e+00 6.232450000000000045e+00 9.214900000000000313e-01 8.734389999999999432e+00 5.989209999999999923e+00 1.390579999999999927e+01 8.742390000000000327e+00 1.489799999999999969e+01 1.419329999999999981e+00 8.971149999999999736e+00 1.495490000000000030e+01 1.403659999999999997e+01 2.272299999999999875e-01 2.749659999999999993e+00 9.968489999999999185e+00 1.730679999999999907e+01 2.381880000000000219e+00 2.311110000000000042e+01 1.693120000000000047e+01 1.069999999999999929e+01 1.006719999999999970e+01 3.087500000000000244e-01 1.129199999999999982e+01 2.240099999999999980e+01 8.331680000000000419e+00 2.412290000000000045e+00 1.024859999999999971e+01 8.920500000000000540e+00 3.035200000000000120e+00 2.262640000000000029e+01 8.812989999999999213e+00 1.142179999999999929e+01 1.061260000000000048e+01 8.878439999999999444e+00 1.121560000000000024e+01 2.254420000000000002e+01 1.709219999999999828e+01 6.986849999999999561e+00 5.218029999999999724e+00 7.562499999999999778e-01 7.003730000000000011e+00 1.791969999999999885e+01 4.809999999999999831e-01 1.577459999999999951e+01 4.948279999999999568e+00 1.727740000000000009e+01 1.607310000000000016e+01 1.775609999999999999e+01 8.954010000000000247e+00 6.659639999999999560e+00 5.272079999999999878e+00 8.380710000000000548e+00 6.948260000000000325e+00 1.777819999999999823e+01 6.981020000000000003e+00 3.410099999999999798e-01 7.645430000000000170e+00 8.514900000000000801e+00 1.605219999999999914e+01 1.800809999999999889e+01 5.113999999999999796e-02 2.621230000000000171e+00 1.453710000000000058e+00 1.733350000000000080e+01 2.906540000000000123e+00 1.362410000000000032e+01 1.148300000000000015e-01 1.105889999999999951e+01 1.516450000000000076e+00 1.704720000000000013e+01 1.104940000000000033e+01 1.408339999999999925e+01 8.879789999999999850e+00 2.565710000000000157e+00 1.339280000000000026e+00 8.606650000000000134e+00 2.386340000000000128e+00 1.425699999999999967e+01 9.112970000000000681e+00 1.122330000000000005e+01 1.161289999999999933e+00 8.974149999999999849e+00 1.101239999999999952e+01 1.435379999999999967e+01 1.190530000000000088e+00 8.668039999999999523e+00 7.423919999999999852e+00 1.951500000000000012e+00 8.780519999999999214e+00 2.026510000000000034e+01 1.963440000000000074e+00 1.665309999999999846e+01 7.731410000000000338e+00 1.575649999999999995e+00 1.890100000000000113e-01 2.036299999999999955e+01 9.807809999999999917e+00 8.538479999999999848e+00 7.867440000000000211e+00 1.023429999999999929e+01 8.854559999999999320e+00 1.963019999999999854e+01 8.330170000000000741e+00 1.568989999999999974e+01 5.701080000000000148e+00 1.026800000000000068e+01 1.738739999999999952e+01 2.064110000000000156e+01 1.586640000000000050e+00 4.129679999999999573e+00 4.420499999999999652e+00 1.999759999999999982e+00 4.188959999999999795e+00 1.640619999999999834e+01 1.732350000000000056e+00 1.274849999999999994e+01 4.104280000000000150e+00 1.790880000000000027e+00 1.277919999999999945e+01 1.677570000000000050e+01 1.055199999999999960e+01 4.561180000000000234e+00 3.518510000000000026e+00 1.027420000000000044e+01 4.263390000000000235e+00 1.674010000000000176e+01 1.088710000000000022e+01 1.288969999999999949e+01 3.376999999999999780e+00 1.065930000000000000e+01 1.329359999999999964e+01 1.681449999999999889e+01 1.607920000000000016e+00 4.670010000000000439e+00 7.601020000000000110e+00 1.675210000000000088e+00 4.367479999999999585e+00 2.031319999999999837e+01 2.036280000000000090e+00 1.264199999999999946e+01 7.483799999999999564e+00 1.950129999999999919e+00 1.320800000000000018e+01 2.005010000000000048e+01 1.064100000000000001e+01 3.958380000000000010e+00 7.728979999999999961e+00 1.019449999999999967e+01 4.611250000000000071e+00 1.978079999999999927e+01 1.060890000000000022e+01 1.234839999999999982e+01 8.148590000000000444e+00 1.067099999999999937e+01 1.309179999999999922e+01 2.057130000000000081e+01 2.517560000000000020e+00 8.995499999999999829e+00 1.117820000000000036e+01 2.608470000000000066e+00 8.373060000000000613e+00 2.436400000000000077e+01 2.867420000000000080e+00 1.736959999999999837e+01 1.164750000000000085e+01 3.106910000000000061e+00 1.657689999999999841e+01 2.457319999999999993e+01 1.054460000000000086e+01 8.140109999999999957e+00 1.104809999999999981e+01 1.099390000000000001e+01 8.187189999999999301e+00 2.348890000000000100e+01 1.106250000000000000e+01 3.745499999999999940e-01 1.128059999999999974e+01 1.101779999999999937e+01 1.645390000000000086e+01 2.383549999999999969e+01 2.842290000000000205e+00 2.600999999999999979e-01 2.638220000000000010e+00 2.854169999999999874e+00 1.519000000000000072e-01 1.518900000000000006e+01 2.428230000000000111e+00 8.559499999999999886e+00 2.296330000000000204e+00 2.826909999999999812e+00 8.804380000000000095e+00 1.507510000000000083e+01 1.145519999999999960e+01 1.734039999999999893e+01 2.545110000000000205e+00 1.154219999999999935e+01 1.737699999999999889e+01 1.520209999999999972e+01 1.120850000000000080e+01 8.713160000000000238e+00 2.242030000000000189e+00 1.128730000000000011e+01 8.285869999999999180e+00 1.540160000000000018e+01 2.700870000000000104e+00 4.349920000000000009e+00 1.180429999999999957e+01 2.667310000000000070e+00 3.701600000000000001e+00 2.403389999999999915e+01 3.042790000000000106e+00 1.249060000000000059e+01 1.130480000000000018e+01 2.858379999999999921e+00 1.278969999999999985e+01 2.424859999999999971e+01 1.256039999999999957e+01 2.589080000000000048e+00 1.399319999999999986e+01 1.131140000000000079e+01 4.575499999999999901e+00 2.396280000000000143e+01 1.131370000000000076e+01 1.338649999999999984e+01 1.128940000000000055e+01 1.167779999999999951e+01 1.276609999999999978e+01 2.413439999999999941e+01 4.021939999999999849e+00 6.571119999999999628e+00 4.882179999999999964e+00 4.600240000000000329e+00 7.325040000000000440e+00 1.800110000000000099e+01 4.574340000000000295e+00 1.570700000000000074e+01 5.163140000000000285e+00 4.203909999999999592e+00 1.560399999999999920e+01 1.736380000000000123e+01 1.282160000000000011e+01 6.560489999999999711e+00 4.872600000000000264e+00 1.326110000000000078e+01 6.769680000000000142e+00 1.742229999999999990e+01 1.282479999999999976e+01 1.551789999999999914e+01 5.331660000000000288e+00 1.285289999999999999e+01 1.553899999999999970e+01 1.760030000000000072e+01 4.362169999999999881e+00 2.519880000000000120e+00 1.506950000000000012e+00 4.798350000000000115e+00 2.944630000000000081e+00 1.368379999999999974e+01 4.691080000000000361e+00 1.115879999999999939e+01 1.130300000000000082e+00 5.036970000000000169e+00 1.114780000000000015e+01 1.368829999999999991e+01 1.283089999999999975e+01 2.646609999999999907e+00 1.146589999999999998e+00 1.292800000000000082e+01 5.790130000000000443e+00 1.419580000000000020e+01 1.351379999999999981e+01 1.142689999999999984e+01 1.450809999999999933e+00 1.301319999999999943e+01 1.113439999999999941e+01 1.356700000000000017e+01 4.391259999999999941e+00 6.585429999999999673e+00 8.495570000000000732e+00 4.067549999999999777e+00 7.186919999999999753e+00 2.173270000000000124e+01 4.535359999999999836e+00 1.551459999999999972e+01 9.013049999999999784e+00 4.285689999999999777e+00 1.531920000000000037e+01 2.155910000000000082e+01 1.246840000000000082e+01 6.790060000000000429e+00 8.676209999999999312e+00 1.260399999999999920e+01 7.063530000000000086e+00 2.076899999999999835e+01 1.286069999999999958e+01 1.589349999999999952e+01 8.956780000000000186e+00 1.320909999999999940e+01 1.542079999999999984e+01 2.170489999999999853e+01 3.942569999999999908e+00 5.965530000000000221e+00 1.095569999999999933e+00 4.416240000000000165e+00 6.258519999999999861e+00 1.408479999999999954e+01 4.268559999999999910e+00 1.442009999999999970e+01 1.347369999999999957e+00 4.406069999999999709e+00 1.469170000000000087e+01 1.371240000000000059e+01 1.323709999999999987e+01 5.783999999999999808e+00 1.575919999999999987e+00 1.151570000000000071e+01 4.104770000000000252e+00 1.117919999999999980e+01 1.336040000000000028e+01 1.497540000000000049e+01 9.092200000000000282e-01 1.335330000000000084e+01 1.414770000000000039e+01 1.426239999999999952e+01 4.307419999999999582e+00 1.595229999999999926e+00 5.063489999999999824e+00 4.395349999999999646e+00 1.610600000000000032e+00 1.772769999999999868e+01 4.375189999999999912e+00 1.014020000000000010e+01 4.935459999999999958e+00 4.621069999999999567e+00 1.091450000000000031e+01 1.758180000000000121e+01 1.288460000000000072e+01 1.535779999999999923e+00 5.186890000000000001e+00 1.290150000000000041e+01 2.055619999999999781e+00 1.778350000000000009e+01 1.298099999999999987e+01 1.011519999999999975e+01 4.963790000000000369e+00 1.320700000000000074e+01 1.009169999999999945e+01 1.772070000000000078e+01 4.349280000000000257e+00 1.542289999999999939e+00 9.056789999999999452e+00 3.927869999999999973e+00 1.441889999999999894e+00 2.234619999999999962e+01 4.312490000000000379e+00 1.034609999999999985e+01 8.301489999999999370e+00 4.856130000000000280e+00 1.064620000000000033e+01 2.256940000000000168e+01 1.290690000000000026e+01 1.635529999999999928e+00 8.653219999999999246e+00 1.252319999999999922e+01 1.669189999999999952e+00 2.192820000000000036e+01 1.259430000000000049e+01 1.002219999999999978e+01 9.063250000000000028e+00 1.320850000000000080e+01 1.055579999999999963e+01 2.126060000000000016e+01 5.815190000000000303e+00 5.185380000000000322e+00 1.124080000000000013e+01 6.113579999999999792e+00 4.098489999999999966e+00 2.450430000000000064e+01 6.026830000000000354e+00 1.330659999999999954e+01 1.139860000000000007e+01 6.396989999999999732e+00 1.334750000000000014e+01 2.439610000000000056e+01 1.466239999999999988e+01 4.397179999999999644e+00 1.194549999999999912e+01 1.472860000000000014e+01 4.632290000000000241e+00 2.403519999999999968e+01 1.422610000000000063e+01 1.287410000000000032e+01 1.093740000000000023e+01 1.494790000000000063e+01 1.233740000000000059e+01 2.430440000000000111e+01 6.190470000000000361e+00 4.293000000000000288e-02 2.816440000000000055e+00 6.311519999999999797e+00 7.542000000000000093e-02 1.543759999999999977e+01 6.332209999999999894e+00 8.393580000000000041e+00 2.521240000000000148e+00 6.450910000000000366e+00 8.830870000000000886e+00 1.484210000000000029e+01 1.498140000000000072e+01 1.734339999999999904e+01 3.166069999999999940e+00 1.502330000000000076e+01 1.575799999999999979e-01 1.529330000000000034e+01 1.478679999999999950e+01 8.553779999999999717e+00 1.792589999999999906e+00 1.453930000000000078e+01 8.972720000000000695e+00 1.482140000000000057e+01 6.542279999999999873e+00 8.597989999999999355e+00 1.055760000000000076e+01 6.330980000000000274e+00 8.196529999999999205e+00 2.396549999999999869e+01 6.384689999999999976e+00 1.733419999999999916e+01 1.122320000000000029e+01 6.421899999999999942e+00 1.702690000000000126e+01 2.379220000000000113e+01 1.389659999999999940e+01 7.916089999999999627e+00 1.138109999999999999e+01 1.463020000000000032e+01 8.492070000000000007e+00 2.361270000000000024e+01 1.457900000000000063e+01 1.738479999999999848e+01 1.122959999999999958e+01 1.443379999999999974e+01 1.738149999999999906e+01 2.395880000000000010e+01 6.811169999999999725e+00 4.511169999999999902e+00 3.521370000000000111e+00 7.148990000000000400e+00 4.593759999999999621e+00 1.660020000000000095e+01 7.156710000000000349e+00 1.308329999999999949e+01 3.763090000000000046e+00 7.326229999999999798e+00 1.334009999999999962e+01 1.642559999999999931e+01 1.561909999999999954e+01 3.954670000000000130e+00 3.938719999999999999e+00 1.559270000000000067e+01 4.244119999999999671e+00 1.643919999999999959e+01 1.572710000000000008e+01 1.344369999999999976e+01 3.770599999999999952e+00 1.589620000000000033e+01 1.357620000000000005e+01 1.653950000000000031e+01 6.663160000000000416e+00 8.007170000000000343e+00 7.364910000000000068e+00 6.755690000000000417e+00 9.291520000000000223e+00 2.014590000000000103e+01 1.022359999999999935e+01 4.197199999999999820e-01 7.608030000000000292e+00 6.972120000000000317e+00 8.581199999999999939e-01 1.992389999999999972e+01 1.503350000000000009e+01 8.366540000000000532e+00 7.290359999999999729e+00 1.620919999999999916e+01 8.447110000000000340e+00 2.022190000000000154e+01 1.581690000000000040e+01 1.696270000000000167e+01 7.313130000000000130e+00 1.561030000000000051e+01 3.924699999999999855e-01 1.983909999999999840e+01 6.997670000000000279e+00 3.883169999999999789e+00 7.213720000000000354e+00 6.726479999999999571e+00 4.301499999999999879e+00 2.030260000000000176e+01 7.261790000000000411e+00 1.299840000000000018e+01 7.692639999999999922e+00 7.411810000000000009e+00 1.321139999999999937e+01 2.035750000000000171e+01 1.529909999999999926e+01 4.044019999999999726e+00 7.968160000000000132e+00 1.543909999999999982e+01 4.181490000000000151e+00 2.062559999999999860e+01 1.555840000000000067e+01 1.297109999999999985e+01 7.647509999999999586e+00 1.558949999999999925e+01 1.299089999999999989e+01 1.998750000000000071e+01 8.835729999999999862e+00 1.639380000000000059e+00 4.708730000000000082e+00 9.300169999999999604e+00 1.861070000000000002e+00 1.814649999999999963e+01 8.176259999999999195e+00 1.015470000000000006e+01 5.336210000000000342e+00 8.554850000000000065e+00 1.020100000000000051e+01 1.730900000000000105e+01 3.526900000000000035e-01 1.733579999999999899e+00 5.739279999999999937e+00 4.120699999999999918e-01 1.776739999999999986e+00 1.775319999999999965e+01 1.661619999999999919e+01 1.038240000000000052e+01 5.279759999999999565e+00 1.617399999999999949e-01 1.039770000000000039e+01 1.797259999999999991e+01 8.107049999999999201e+00 5.876360000000000028e+00 1.004739999999999966e+01 8.488060000000000827e+00 6.369880000000000209e+00 2.240850000000000009e+01 9.353730000000000544e+00 1.481029999999999980e+01 9.644299999999999429e+00 8.691610000000000724e+00 1.466699999999999982e+01 2.281400000000000006e+01 6.704000000000000237e-02 6.227909999999999613e+00 1.062330000000000041e+01 1.732479999999999976e+01 6.054020000000000401e+00 2.300059999999999860e+01 1.738399999999999945e-01 1.469759999999999955e+01 1.016469999999999985e+01 1.709909999999999997e+01 1.517830000000000013e+01 2.252400000000000091e+01