1.837839999999999918e+00 6.565150000000000041e+00 9.673600000000000421e+00 1.879860000000000086e+00 7.116600000000000037e+00 2.218769999999999953e+01 1.132220000000000004e+00 1.693710000000000093e+01 9.414989999999999526e+00 1.622190000000000154e+01 1.728030000000000044e+01 2.247769999999999868e+01 1.110619999999999941e+01 6.462589999999999613e+00 8.120250000000000412e+00 1.034450000000000003e+01 6.377270000000000216e+00 2.194819999999999993e+01 1.082610000000000028e+01 1.542910000000000004e+01 9.087519999999999598e+00 9.561139999999999972e+00 1.661629999999999896e+01 2.226480000000000103e+01 2.174040000000000195e+00 2.063579999999999970e+00 1.240740000000000087e+01 2.491460000000000008e+00 1.863599999999999923e+00 3.795299999999999785e-01 2.516939999999999955e+00 1.144589999999999996e+01 1.199280000000000079e+01 1.969840000000000035e+00 1.111870000000000047e+01 2.465609999999999857e+01 1.116789999999999949e+01 2.074260000000000215e+00 1.361139999999999972e+01 1.035420000000000051e+01 2.201000000000000068e+00 2.472640000000000171e+01 9.814109999999999445e+00 9.751680000000000348e+00 1.009290000000000020e+01 1.111979999999999968e+01 1.126520000000000010e+01 2.255219999999999914e+01 1.390989999999999949e+00 7.287209999999999965e+00 3.384840000000000071e+00 2.464800000000000046e-01 8.495789999999999509e+00 1.543759999999999977e+01 1.819360000000000088e+00 1.534370000000000012e+01 1.895129999999999981e+00 2.706490000000000062e+00 1.497220000000000084e+01 1.457390000000000008e+01 8.750669999999999504e+00 8.821460000000000079e+00 3.191019999999999968e+00 1.077580000000000027e+01 6.448459999999999859e+00 1.564109999999999978e+01 1.018190000000000062e+01 1.515489999999999959e+01 2.739209999999999923e+00 1.109340000000000082e+01 1.488879999999999981e+01 1.590509999999999913e+01 2.499390000000000001e+00 2.242300000000000182e+00 6.035829999999999806e+00 1.943990000000000107e+00 2.172369999999999912e+00 1.923679999999999879e+01 1.779409999999999936e+00 1.058840000000000003e+01 4.698520000000000252e+00 2.435579999999999856e+00 1.065360000000000085e+01 1.789679999999999893e+01 1.064509999999999934e+01 2.034170000000000034e+00 6.803099999999999703e+00 1.006029999999999980e+01 1.651569999999999983e+00 1.621979999999999933e+01 1.178240000000000087e+01 1.133179999999999943e+01 3.126520000000000188e+00 1.065130000000000088e+01 9.994989999999999597e+00 1.706980000000000075e+01 2.438470000000000137e+00 3.067849999999999966e+00 9.396079999999999544e+00 1.504979999999999984e+00 2.025319999999999787e+00 2.277049999999999841e+01 1.806510000000000060e+00 1.082639999999999958e+01 8.263899999999999579e+00 2.052880000000000038e+00 1.026810000000000045e+01 2.126679999999999993e+01 1.107789999999999964e+01 2.167440000000000033e+00 1.010100000000000087e+01 1.091649999999999920e+01 1.793590000000000018e+00 2.007580000000000098e+01 1.068859999999999921e+01 1.113920000000000066e+01 6.792670000000000208e+00 1.062049999999999983e+01 1.050070000000000014e+01 2.017330000000000112e+01 2.051660000000000039e+00 6.621019999999999683e+00 6.515189999999999593e+00 2.186710000000000154e+00 6.272649999999999615e+00 1.913390000000000057e+01 2.037119999999999820e+00 1.492950000000000088e+01 5.907659999999999911e+00 1.504359999999999919e+00 1.501079999999999970e+01 2.083439999999999870e+01 9.947660000000000835e+00 6.446579999999999977e+00 3.007150000000000212e+00 1.075880000000000081e+01 6.362379999999999924e+00 1.833299999999999841e+01 1.112950000000000017e+01 1.564860000000000007e+01 6.213930000000000398e+00 1.175699999999999967e+01 1.488369999999999926e+01 1.928460000000000107e+01 2.013959999999999972e+00 6.365350000000000286e+00 2.463500000000000134e-01 1.855560000000000098e+00 6.547039999999999971e+00 1.324900000000000055e+01 1.875969999999999915e+00 1.502720000000000056e+01 2.454840000000000089e+01 2.494419999999999860e+00 1.456259999999999977e+01 9.659629999999999939e+00 1.106209999999999916e+01 6.809499999999999886e+00 4.571500000000000008e-01 1.133559999999999945e+01 6.634680000000000355e+00 1.236299999999999955e+01 1.098380000000000045e+01 1.483150000000000013e+01 2.449060000000000059e+01 1.067919999999999980e+01 1.529940000000000033e+01 1.256220000000000070e+01 2.474839999999999929e+00 1.911769999999999969e+00 3.022699999999999942e+00 2.984849999999999781e+00 3.122419999999999973e+00 1.648349999999999937e+01 3.697499999999999787e+00 1.244209999999999994e+01 2.751829999999999998e+00 2.708460000000000090e+00 1.189869999999999983e+01 1.463499999999999979e+01 1.048109999999999964e+01 1.703710000000000058e+00 3.777369999999999894e+00 1.322690000000000055e+01 4.315000000000000391e+00 1.627740000000000009e+01 1.094430000000000014e+01 1.113879999999999981e+01 1.166800000000000059e-01 1.121330000000000027e+01 1.073920000000000030e+01 1.380419999999999980e+01 4.841459999999999653e+00 4.747270000000000323e+00 9.567239999999999966e+00 4.091479999999999784e+00 4.938119999999999621e+00 2.271950000000000003e+01 4.817820000000000213e+00 1.319490000000000052e+01 8.399229999999999308e+00 3.503130000000000077e+00 1.301510000000000034e+01 2.102509999999999835e+01 1.274029999999999951e+01 4.187470000000000248e+00 8.791829999999999146e+00 1.244340000000000046e+01 4.214299999999999713e+00 2.236749999999999972e+01 1.358810000000000073e+01 1.213330000000000020e+01 9.685439999999999827e+00 1.326689999999999969e+01 1.320480000000000054e+01 2.209209999999999852e+01 3.727529999999999788e+00 8.712339999999999307e+00 9.653500000000000414e-01 4.238220000000000098e+00 8.914759999999999351e+00 1.335479999999999912e+01 4.743229999999999613e+00 1.699370000000000047e+01 9.349300000000000388e-01 4.478729999999999656e+00 2.426999999999999991e-01 1.316019999999999968e+01 1.341210000000000058e+01 7.853979999999999961e+00 6.086300000000000043e-01 1.381620000000000026e+01 9.284190000000000609e+00 1.301239999999999952e+01 1.284939999999999927e+01 1.797400000000000109e-01 2.308600000000000096e-01 1.321410000000000018e+01 1.682839999999999847e+01 1.339439999999999920e+01 4.130690000000000417e+00 9.464719999999999800e+00 6.648539999999999672e+00 4.979630000000000223e+00 8.056020000000000181e+00 1.951660000000000039e+01 4.582889999999999908e+00 1.701480000000000103e+01 6.543370000000000353e+00 3.989679999999999893e+00 1.735429999999999851e+01 1.990020000000000167e+01 1.252810000000000024e+01 9.117990000000000705e+00 6.891169999999999796e+00 1.321579999999999977e+01 8.233689999999999287e+00 1.965409999999999968e+01 1.500079999999999991e+01 1.543599999999999994e+01 6.374349999999999739e+00 1.354340000000000011e+01 1.705549999999999855e+01 1.956380000000000052e+01 6.510369999999999990e+00 3.047120000000000051e+00 1.164939999999999998e+01 6.139599999999999724e+00 2.513900000000000023e+00 2.282929999999999993e+01 6.071349999999999802e+00 1.116990000000000016e+01 1.106099999999999994e+01 6.355339999999999989e+00 1.101890000000000036e+01 2.291750000000000043e+01 1.591690000000000005e+01 1.912949999999999928e+00 1.202280000000000015e+01 1.491239999999999988e+01 2.142290000000000028e+00 4.261999999999999816e-02 1.668059999999999832e+01 9.345869999999999678e+00 9.326280000000000570e+00 1.656409999999999982e+01 8.490000000000000213e+00 2.245210000000000150e+01 6.737479999999999691e+00 2.191219999999999946e+00 2.268920000000000048e+00 6.274090000000000167e+00 2.231170000000000098e+00 1.459779999999999944e+01 6.398119999999999585e+00 1.017370000000000019e+01 7.318500000000000005e-01 6.297990000000000421e+00 1.257179999999999964e+01 1.464830000000000076e+01 1.336200000000000010e+01 3.677379999999999871e+00 3.257789999999999964e+00 1.577619999999999933e+01 1.729570000000000052e+00 1.546950000000000003e+01 1.510839999999999961e+01 1.071049999999999969e+01 4.801599999999999757e-01 1.567999999999999972e+01 1.124489999999999945e+01 1.259730000000000061e+01 5.668549999999999756e+00 6.535619999999999763e+00 3.300339999999999829e+00 6.541350000000000442e+00 6.624010000000000176e+00 1.550580000000000069e+01 6.571049999999999613e+00 1.541590000000000060e+01 4.610470000000000290e+00 6.507179999999999964e+00 1.537500000000000000e+01 1.821490000000000009e+01 1.467300000000000004e+01 6.095579999999999998e+00 6.787049999999999805e+00 1.488710000000000022e+01 6.171719999999999651e+00 1.794200000000000017e+01 1.521550000000000047e+01 1.546679999999999922e+01 2.929629999999999956e+00 1.730209999999999937e+01 1.642470000000000141e+01 1.616359999999999886e+01 6.238509999999999778e+00 6.701710000000000278e+00 1.811699999999999977e-01 7.629249999999999865e+00 7.334550000000000125e+00 1.174189999999999934e+01 6.189829999999999721e+00 1.494630000000000081e+01 1.991400000000000114e-01 7.264300000000000423e+00 1.547659999999999947e+01 1.502330000000000076e+01 1.570780000000000065e+01 6.757570000000000299e+00 2.900399999999999867e+00 1.520550000000000068e+01 6.304170000000000051e+00 1.466789999999999949e+01 1.540970000000000084e+01 1.515859999999999985e+01 2.459489999999999910e+01 1.457089999999999996e+01 1.470410000000000039e+01 1.594170000000000087e+01 6.122020000000000017e+00 1.947109999999999896e+00 6.742790000000000283e+00 6.676300000000000345e+00 1.851310000000000011e+00 1.758060000000000045e+01 6.444539999999999935e+00 1.072139999999999915e+01 3.974299999999999944e+00 7.729639999999999844e+00 9.992660000000000764e+00 1.607389999999999830e+01 1.545069999999999943e+01 2.077179999999999804e+00 4.366959999999999731e+00 1.541740000000000066e+01 2.620389999999999997e+00 1.804970000000000141e+01 1.512620000000000076e+01 1.085640000000000072e+01 3.700520000000000032e+00 1.611629999999999896e+01 1.070400000000000063e+01 1.607939999999999969e+01 6.731469999999999843e+00 6.648489999999999789e+00 5.926499999999999879e+00 6.345579999999999998e+00 6.585860000000000269e+00 2.239809999999999945e+01 6.767820000000000391e+00 1.554289999999999949e+01 9.782009999999999650e+00 6.726479999999999571e+00 1.479509999999999970e+01 2.151589999999999847e+01 1.518790000000000084e+01 6.536260000000000403e+00 1.108750000000000036e+01 1.482070000000000043e+01 6.360500000000000043e+00 2.320710000000000051e+01 1.542759999999999998e+01 1.544549999999999912e+01 1.013770000000000060e+01 1.517079999999999984e+01 1.512909999999999933e+01 2.062130000000000152e+01 7.605610000000000426e+00 1.018960000000000088e+00 9.049730000000000274e+00 7.509619999999999962e+00 1.693910000000000027e+00 2.042909999999999826e+01 6.582910000000000039e+00 1.107329999999999970e+01 8.031790000000000873e+00 6.689470000000000027e+00 1.055139999999999922e+01 2.041570000000000107e+01 1.579439999999999955e+01 1.767370000000000108e+00 9.036929999999999907e+00 1.499329999999999963e+01 2.338249999999999940e+00 2.092780000000000129e+01 1.470170000000000066e+01 1.096020000000000039e+01 6.602240000000000109e+00 1.489220000000000077e+01 1.026609999999999978e+01 1.967460000000000164e+01 8.759570000000000078e+00 4.151720000000000077e+00 5.678950000000000387e+00 8.195589999999999264e+00 5.408019999999999605e+00 1.863410000000000011e+01 8.797599999999999199e+00 1.345560000000000045e+01 5.876149999999999984e+00 9.200409999999999755e+00 1.267939999999999934e+01 1.849849999999999994e+01 1.725580000000000069e+01 4.337769999999999904e+00 5.660919999999999952e+00 4.510299999999999865e-01 4.580989999999999895e+00 1.858259999999999934e+01 1.706960000000000122e+01 1.325910000000000011e+01 5.641250000000000320e+00 1.622190000000000154e+01 1.310350000000000037e+01 1.803750000000000142e+01 8.842299999999999827e+00 4.330809999999999604e+00 1.189990000000000059e+01 8.546910000000000451e+00 4.366340000000000110e+00 2.455740000000000123e+01 8.539720000000000866e+00 1.244810000000000016e+01 1.234029999999999916e+01 8.444079999999999586e+00 1.256700000000000017e+01 2.436280000000000001e+01 1.706429999999999936e+01 4.158039999999999736e+00 1.200670000000000037e+01 1.687950000000000017e+01 4.266250000000000320e+00 2.446709999999999852e+01 1.739451000000000036e+01 1.345279999999999987e+01 1.190109999999999957e+01 1.399900000000000033e-01 1.316060000000000052e+01 2.420929999999999893e+01 4.439400000000000013e+00 8.677540000000000475e+00 2.267310000000000159e+01 4.350539999999999630e+00 8.036999999999999700e-02 1.040240000000000009e+01 1.263579999999999970e+01 1.725369999999999848e+01 2.277049999999999841e+01 8.644539999999999225e+00 4.357020000000000337e+00 1.486180000000000057e+01 1.970500000000000029e-01 4.071380000000000443e+00 2.353380000000000027e+00 2.368999999999999925e-02 4.234449999999999825e+00 1.505320000000000036e+01 1.740759999999999863e+01 4.411739999999999995e+00 2.147259999999999991e+01 1.736759999999999948e+01 1.307339999999999947e+01 8.542210000000000747e+00 1.732250000000000156e+01 1.268290000000000006e+01 2.115490000000000137e+01 8.738239999999999341e+00 4.641370000000000218e+00 8.650270000000000792e+00 8.886720000000000397e+00 1.282789999999999964e+01 2.130000000000000071e+01 4.471029999999999838e+00 1.717360000000000042e+01 3.743199999999999861e+00 3.949359999999999982e+00 8.952740000000000364e+00 3.604060000000000041e+00 1.337640000000000029e+01 1.759000000000000147e-02 1.630640000000000001e+01 1.301099999999999923e+01 8.633319999999999439e+00 4.124340000000000117e+00 1.309169999999999945e+01 8.602019999999999555e+00 1.616140000000000043e+01 4.185749999999999638e+00 8.740640000000000853e+00 1.022470000000000034e+01 4.337329999999999686e+00 1.735920000000000130e+01 2.285000000000000142e+01 1.297109999999999985e+01 8.758680000000000021e+00 1.034299999999999997e+01 1.270930000000000071e+01 8.458619999999999806e+00 2.292500000000000071e+01 1.314429999999999943e+01 6.062000000000000027e-02 9.910709999999999908e+00 8.771860000000000213e+00 4.225539999999999630e+00 2.296429999999999971e+00 8.560399999999999565e+00 1.295880000000000010e+01 2.208120000000000083e+00 8.881840000000000401e+00 1.252570000000000050e+01 1.531789999999999985e+01 1.739470000000000027e+01 1.296279999999999966e+01 2.046800000000000175e+00 1.942999999999999935e-02 1.321739999999999959e+01 1.505119999999999969e+01 1.716870000000000118e+01 4.508250000000000313e+00 8.652269999999999683e+00 8.527570000000000761e+00 4.094979999999999620e+00 2.145550000000000068e+01 8.967430000000000234e+00 1.323170000000000002e+01 8.729189999999999117e+00 4.390390000000000015e+00 1.744350000000000023e+01 1.673499999999999943e+01 4.352500000000000036e+00 8.921400000000000219e+00 1.651190000000000069e+01 1.308949999999999925e+01 8.695999999999999563e-02 3.787739999999999885e+00 4.139879999999999782e+00 4.671509999999999607e+00 1.288449999999999918e+01 4.306339999999999613e+00 4.324869999999999770e+00 3.166499999999999870e-01 4.558180000000000121e+00 1.357840000000000025e+01 1.259019999999999939e+01 4.223370000000000068e+00 1.306680000000000064e+01 2.481360000000000099e+01 1.311120000000000019e+01 4.120070000000000121e+00 1.258399999999999963e+01 1.287759999999999927e+01 4.433139999999999858e+00 2.046000000000000041e-01 1.328539999999999921e+01 1.299390000000000001e+01 1.284609999999999985e+01 1.306409999999999982e+01 1.295579999999999998e+01 2.503900000000000148e+01 8.620279999999999276e+00 8.829750000000000654e+00 6.466190000000000104e+00 8.815450000000000230e+00 8.288959999999999440e+00 1.900150000000000006e+01 8.621900000000000119e+00 1.716649999999999920e+01 6.157790000000000319e+00 8.998590000000000089e+00 1.690309999999999846e+01 1.881139999999999901e+01 1.702199999999999847e+01 8.557169999999999277e+00 6.056939999999999991e+00 1.727629999999999910e+01 8.516120000000000800e+00 1.902580000000000027e+01 3.214099999999999735e-01 1.710960000000000036e+01 6.251350000000000406e+00 2.149800000000000044e-01 1.722990000000000066e+01 1.895899999999999963e+01 9.049999999999999711e-02 5.954979999999999940e+00 1.300729999999999942e+00 1.716169999999999973e+01 6.242609999999999992e+00 1.361800000000000033e+01 8.007000000000000228e-02 1.486139999999999972e+01 8.770999999999999908e-01 1.383800000000000030e-01 1.477660000000000018e+01 1.389569999999999972e+01 8.767780000000000129e+00 5.950260000000000105e+00 1.024329999999999963e+00 8.229499999999999815e+00 6.353449999999999598e+00 1.387650000000000006e+01 8.900930000000000675e+00 1.429529999999999923e+01 7.598300000000000054e-01 8.940189999999999415e+00 1.438180000000000014e+01 1.408949999999999925e+01 1.740009999999999835e+01 3.081850000000000200e+00 1.011159999999999926e+01 1.678950000000000031e+01 2.608150000000000190e+00 2.261029999999999873e+01 3.608299999999999841e-01 1.141559999999999953e+01 1.007419999999999938e+01 6.472999999999999587e-02 1.072749999999999915e+01 2.228500000000000014e+01 8.544019999999999726e+00 2.772349999999999870e+00 9.938370000000000815e+00 8.620120000000000005e+00 2.449510000000000076e+00 2.273740000000000094e+01 8.808579999999999188e+00 1.188189999999999991e+01 1.019790000000000063e+01 8.548209999999999198e+00 1.087480000000000047e+01 2.235920000000000130e+01 1.727199999999999847e+01 6.826660000000000394e+00 4.975389999999999979e+00 1.725730000000000075e+01 6.923600000000000421e+00 1.754080000000000084e+01 1.737610000000000099e+01 1.596499999999999986e+01 4.743970000000000020e+00 2.694699999999999873e-01 1.542849999999999966e+01 1.809359999999999857e+01 8.732409999999999783e+00 7.458420000000000272e+00 4.945640000000000036e+00 9.029080000000000439e+00 7.311020000000000074e+00 1.721839999999999904e+01 8.880440000000000111e+00 1.560239999999999938e+01 4.886829999999999785e+00 8.710699999999999221e+00 1.585660000000000025e+01 1.718550000000000111e+01 2.968100000000000183e-01 2.256069999999999798e+00 1.046689999999999898e+00 2.778999999999999873e-02 2.440430000000000099e+00 1.380049999999999955e+01 2.350000000000000092e-03 1.133769999999999989e+01 6.532499999999999973e-01 4.880300000000000193e-01 1.130819999999999936e+01 1.379090000000000060e+01 8.663890000000000313e+00 2.587380000000000013e+00 1.039269999999999916e+00 8.397140000000000271e+00 2.503340000000000121e+00 1.345899999999999963e+01 8.722870000000000346e+00 1.102270000000000039e+01 1.303849999999999953e+00 8.742020000000000124e+00 1.104790000000000028e+01 1.393329999999999913e+01 1.326910000000000034e+00 8.908369999999999678e+00 7.169419999999999682e+00 1.662740000000000107e+00 8.320679999999999410e+00 2.007260000000000133e+01 2.186139999999999972e+00 1.685879999999999868e+01 7.356340000000000323e+00 1.738140000000000018e+00 1.741729000000000127e+01 2.016110000000000113e+01 1.019350000000000023e+01 8.693749999999999645e+00 7.692169999999999952e+00 1.048109999999999964e+01 8.294890000000000541e+00 2.006859999999999999e+01 1.034159999999999968e+01 7.606000000000000261e-02 7.585700000000000109e+00 1.051839999999999975e+01 1.666009999999999991e+01 2.027969999999999828e+01 1.913929999999999909e+00 4.111369999999999969e+00 3.893549999999999844e+00 1.701160000000000005e+00 4.640419999999999767e+00 1.661830000000000140e+01 1.388830000000000009e+00 1.341220000000000034e+01 3.495999999999999996e+00 1.698550000000000004e+00 1.337780000000000058e+01 1.634029999999999916e+01 1.054229999999999912e+01 4.395489999999999675e+00 3.740429999999999922e+00 1.072809999999999953e+01 3.924580000000000179e+00 1.597450000000000081e+01 1.023550000000000004e+01 1.293200000000000038e+01 3.607390000000000096e+00 1.074249999999999972e+01 1.263899999999999935e+01 1.613439999999999941e+01 1.714029999999999943e+00 4.448710000000000164e+00 7.518390000000000128e+00 1.781169999999999920e+00 4.398990000000000400e+00 2.055170000000000030e+01 1.503049999999999997e+00 1.299859999999999971e+01 6.997819999999999929e+00 1.521479999999999944e+00 1.295320000000000071e+01 1.972139999999999915e+01 1.065300000000000047e+01 4.306980000000000253e+00 7.230940000000000367e+00 1.018670000000000009e+01 4.373380000000000045e+00 2.021239999999999881e+01 1.056349999999999945e+01 1.336630000000000074e+01 7.396250000000000213e+00 1.089279999999999937e+01 1.282830000000000048e+01 2.014499999999999957e+01 2.326719999999999899e+00 8.838440000000000296e+00 1.102030000000000065e+01 2.503460000000000019e+00 8.587619999999999365e+00 2.394010000000000105e+01 2.558980000000000032e+00 1.319000000000000034e-02 1.168449999999999989e+01 2.633729999999999905e+00 1.743929999999999936e+01 2.391469999999999985e+01 1.158670000000000044e+01 9.027350000000000207e+00 1.179729999999999990e+01 1.098770000000000024e+01 8.574329999999999785e+00 2.410709999999999908e+01 1.131310000000000038e+01 4.472000000000000280e-02 1.092740000000000045e+01 1.110670000000000002e+01 1.712590000000000146e+01 2.425240000000000151e+01 2.646319999999999784e+00 1.736899999999999977e+01 2.212089999999999890e+00 2.906060000000000088e+00 6.650999999999999968e-02 1.527030000000000065e+01 2.095940000000000136e+00 9.272240000000000038e+00 2.631730000000000125e+00 2.655699999999999950e+00 9.238329999999999487e+00 1.516089999999999982e+01 1.119379999999999953e+01 1.728810000000000002e+01 2.980020000000000113e+00 1.142350000000000065e+01 1.729210000000000136e+01 1.510169999999999924e+01 1.125019999999999953e+01 8.727190000000000225e+00 2.638500000000000068e+00 1.125220000000000020e+01 8.875460000000000349e+00 1.508319999999999972e+01 2.663450000000000095e+00 4.735129999999999839e+00 1.146000000000000085e+01 2.710659999999999847e+00 4.323039999999999772e+00 2.461289999999999978e+01 2.667809999999999793e+00 1.391649999999999920e+01 1.188279999999999959e+01 2.597059999999999924e+00 1.311120000000000019e+01 2.333930000000000149e+01 1.136229999999999940e+01 3.897260000000000169e+00 1.159479999999999933e+01 1.125799999999999912e+01 4.962989999999999569e+00 2.431480000000000175e+01 1.185319999999999929e+01 1.252860000000000085e+01 1.150789999999999935e+01 1.143580000000000041e+01 1.303240000000000087e+01 2.397329999999999828e+01 3.888790000000000191e+00 7.437780000000000058e+00 5.343510000000000204e+00 3.703320000000000167e+00 7.225019999999999776e+00 1.748880000000000123e+01 4.238080000000000069e+00 1.531780000000000008e+01 5.157960000000000100e+00 4.425810000000000244e+00 1.586669999999999980e+01 1.807460000000000022e+01 1.260919999999999952e+01 7.064409999999999634e+00 5.640649999999999942e+00 1.290629999999999988e+01 6.471919999999999895e+00 1.729619999999999891e+01 1.356889999999999930e+01 1.586880000000000024e+01 4.568699999999999761e+00 1.333259999999999934e+01 1.569059999999999988e+01 1.752509999999999835e+01 4.679260000000000197e+00 2.513650000000000162e+00 9.368300000000000516e-01 3.920990000000000197e+00 2.999559999999999782e+00 1.383830000000000027e+01 4.217909999999999826e+00 1.107980000000000054e+01 1.632099999999999940e-01 4.479919999999999902e+00 1.153040000000000020e+01 1.299460000000000015e+01 1.247899999999999920e+01 2.625729999999999897e+00 9.634399999999999631e-01 1.347039999999999971e+01 2.396999999999999797e+00 1.370700000000000074e+01 1.302979999999999983e+01 1.147540000000000049e+01 1.022440000000000015e+00 1.347090000000000032e+01 1.142179999999999929e+01 1.406910000000000061e+01 4.162530000000000285e+00 7.090150000000000396e+00 8.898089999999999833e+00 4.175769999999999982e+00 6.744909999999999961e+00 2.136749999999999972e+01 4.333999999999999631e+00 1.576890000000000036e+01 8.971130000000000493e+00 4.406699999999999839e+00 1.557820000000000071e+01 2.149429999999999907e+01 1.291019999999999968e+01 6.817000000000000171e+00 9.530730000000000146e+00 1.280129999999999946e+01 6.820879999999999832e+00 2.146450000000000102e+01 1.336890000000000001e+01 1.558380000000000010e+01 9.472039999999999793e+00 1.289380000000000059e+01 1.551420000000000066e+01 2.130460000000000065e+01 4.188180000000000014e+00 5.916830000000000034e+00 1.580540000000000056e+00 3.787830000000000030e+00 6.221359999999999779e+00 1.413390000000000057e+01 4.209299999999999820e+00 1.440479999999999983e+01 1.028089999999999948e+00 5.037670000000000314e+00 1.460050000000000026e+01 1.444239999999999924e+01 1.321950000000000003e+01 5.819239999999999746e+00 1.681179999999999897e+00 1.313039999999999985e+01 5.672329999999999650e+00 1.365220000000000056e+01 1.304379999999999917e+01 1.477490000000000059e+01 5.747400000000000286e-01 1.281429999999999936e+01 1.466830000000000034e+01 1.382959999999999923e+01 4.483839999999999826e+00 1.441189999999999971e+00 5.044999999999999929e+00 4.076649999999999885e+00 1.700569999999999915e+00 1.807250000000000156e+01 4.243409999999999904e+00 1.105669999999999931e+01 4.590559999999999974e+00 4.885200000000000209e+00 1.053679999999999950e+01 1.784840000000000160e+01 1.331150000000000055e+01 1.687200000000000033e+00 4.972800000000000331e+00 1.345759999999999934e+01 1.823870000000000102e+00 1.782509999999999906e+01 1.289470000000000027e+01 1.059759999999999991e+01 5.166030000000000122e+00 1.298540000000000028e+01 1.012250000000000050e+01 1.780440000000000111e+01 4.655590000000000117e+00 1.832179999999999920e+00 9.074830000000000396e+00 4.193629999999999747e+00 1.610300000000000065e+00 2.170370000000000132e+01 4.309820000000000206e+00 1.075900000000000034e+01 9.242210000000000036e+00 4.548639999999999795e+00 1.025079999999999991e+01 2.125100000000000122e+01 1.284830000000000005e+01 1.682450000000000001e+00 8.471920000000000783e+00 1.265489999999999959e+01 1.848019999999999996e+00 2.182069999999999865e+01 1.265039999999999942e+01 1.025789999999999935e+01 8.853139999999999787e+00 1.315140000000000065e+01 1.032489999999999952e+01 2.175189999999999912e+01 5.924999999999999822e+00 5.037449999999999761e+00 1.162219999999999942e+01 5.889990000000000059e+00 4.623669999999999725e+00 2.423720000000000141e+01 6.105610000000000426e+00 1.380000000000000071e+01 1.147090000000000032e+01 5.885500000000000398e+00 1.319539999999999935e+01 2.370029999999999859e+01 1.467670000000000030e+01 4.112180000000000391e+00 1.113209999999999944e+01 1.464669999999999916e+01 4.410650000000000404e+00 2.456929999999999836e+01 1.500079999999999991e+01 1.300730000000000075e+01 1.172749999999999915e+01 1.469209999999999994e+01 1.264289999999999914e+01 2.379609999999999914e+01 6.336870000000000225e+00 1.694760000000000133e+01 2.623069999999999791e+00 6.177710000000000257e+00 1.932200000000000029e-01 1.574029999999999951e+01 6.050189999999999735e+00 8.803710000000000591e+00 2.539590000000000014e+00 6.117210000000000036e+00 8.669810000000000016e+00 1.500869999999999926e+01 1.470149999999999935e+01 3.841200000000000170e-01 2.335609999999999964e+00 1.527730000000000032e+01 1.698470000000000013e+01 1.519899999999999984e+01 1.474150000000000027e+01 8.836399999999999366e+00 2.694819999999999993e+00 1.489760000000000062e+01 8.608840000000000714e+00 1.495390000000000086e+01 5.827969999999999651e+00 8.829710000000000392e+00 1.160880000000000045e+01 6.414220000000000255e+00 8.541689999999999117e+00 2.370339999999999847e+01 6.252930000000000099e+00 1.729319999999999879e+01 1.187570000000000014e+01 6.138550000000000395e+00 1.719409999999999883e+01 2.412470000000000070e+01 1.490099999999999980e+01 9.245969999999999800e+00 1.104059999999999953e+01 1.457590000000000074e+01 8.636350000000000193e+00 2.402489999999999881e+01 1.449029999999999951e+01 1.468000000000000138e-01 1.144280000000000008e+01 1.445500000000000007e+01 2.409999999999999989e-02 2.425140000000000029e+01 7.160169999999999924e+00 4.328529999999999767e+00 3.475530000000000008e+00 7.061259999999999870e+00 3.993119999999999781e+00 1.655940000000000012e+01 6.663109999999999644e+00 1.303139999999999965e+01 3.235759999999999970e+00 7.615809999999999746e+00 1.226290000000000013e+01 1.669819999999999993e+01 1.581760000000000055e+01 4.224300000000000388e+00 3.646520000000000206e+00 1.558569999999999922e+01 4.221070000000000100e+00 1.623229999999999862e+01 1.550150000000000006e+01 1.310670000000000002e+01 3.082040000000000113e+00 1.566999999999999993e+01 1.285219999999999985e+01 1.586420000000000030e+01 6.773240000000000371e+00 8.870680000000000121e+00 7.290339999999999598e+00 7.082349999999999923e+00 7.357070000000000221e+00 1.981449999999999889e+01 6.987180000000000391e+00 1.732550000000000168e+01 7.325459999999999638e+00 7.390620000000000189e+00 1.669859999999999900e+01 1.998379999999999868e+01 1.554879999999999995e+01 8.360950000000000770e+00 7.325260000000000105e+00 1.568849999999999945e+01 8.382659999999999556e+00 2.024699999999999989e+01 1.618270000000000053e+01 1.684600000000000009e+01 7.777389999999999581e+00 1.582429999999999914e+01 3.781999999999999945e-02 2.018390000000000128e+01 6.725329999999999586e+00 4.636720000000000397e+00 7.450719999999999565e+00 6.829489999999999839e+00 3.962509999999999977e+00 2.027649999999999864e+01 7.240910000000000402e+00 1.331199999999999939e+01 7.495459999999999567e+00 6.959760000000000169e+00 1.289339999999999975e+01 1.985490000000000066e+01 1.551810000000000045e+01 3.994310000000000027e+00 7.639529999999999710e+00 1.597920000000000051e+01 4.198859999999999815e+00 1.971399999999999864e+01 1.529480000000000040e+01 1.290680000000000049e+01 7.461240000000000094e+00 1.514550000000000018e+01 1.265370000000000061e+01 2.031469999999999843e+01 8.511189999999999145e+00 1.272820000000000062e+00 5.186930000000000263e+00 8.911469999999999558e+00 1.461000000000000076e+00 1.815080000000000027e+01 8.744989999999999597e+00 1.069899999999999984e+01 5.558609999999999829e+00 8.465669999999999362e+00 1.020470000000000077e+01 1.842950000000000088e+01 2.783900000000000263e-01 1.500210000000000043e+00 5.723930000000000184e+00 4.932999999999999885e-02 1.306289999999999951e+00 1.767370000000000019e+01 1.671689999999999898e+01 1.046049999999999969e+01 5.288420000000000343e+00 1.726859999999999928e+01 1.030910000000000082e+01 1.807110000000000127e+01 9.173180000000000334e+00 6.447449999999999903e+00 1.010449999999999982e+01 8.422729999999999606e+00 5.777289999999999814e+00 2.259149999999999991e+01 8.950540000000000163e+00 1.496840000000000082e+01 9.781900000000000261e+00 8.807570000000000121e+00 1.432060000000000066e+01 2.279729999999999990e+01 1.697879999999999967e+01 6.402440000000000353e+00 9.360030000000000072e+00 1.714849999999999852e+01 6.253359999999999808e+00 2.279960000000000164e+01 2.995399999999999729e-01 1.469089999999999918e+01 1.010960000000000036e+01 1.719569999999999865e+01 1.477710000000000079e+01 2.213970000000000127e+01