6.089170000000000194e+00 6.543199999999999683e+00 1.109580000000000055e+01 1.861949999999999994e+00 1.083649999999999913e+01 2.505829999999999913e+01 5.192099999999999493e-01 1.702179999999999893e+01 9.547919999999999519e+00 3.768320000000000114e+00 1.369449999999999967e+01 1.598080000000000034e+01 1.064920000000000044e+01 5.915390000000000370e+00 1.281039999999999957e+01 1.088560000000000016e+01 6.352570000000000050e+00 2.281090000000000018e+01 1.080749999999999922e+01 1.513930000000000042e+01 9.281530000000000058e+00 1.111880000000000024e+01 1.514729999999999954e+01 1.559439999999999937e+00 1.032639999999999958e+01 2.402600000000000069e+00 8.739950000000000330e+00 2.429600000000000204e+00 6.369629999999999903e+00 3.159689999999999888e+00 9.385400000000000409e-01 1.285800000000000054e+01 1.215549999999999997e+01 3.631769999999999943e+00 1.335360000000000014e+01 2.220799999999999841e+01 6.141479999999999606e+00 1.471969999999999956e+01 1.060030000000000072e+01 1.056659999999999933e+01 2.448409999999999975e+00 7.639999999999999569e-02 1.018389999999999951e+01 6.604440000000000310e+00 1.960859999999999914e+01 1.110079999999999956e+01 1.124939999999999962e+01 2.822569999999999801e+00 1.845750000000000002e+00 1.025960000000000072e+01 1.252130000000000010e+01 1.540559999999999929e+00 6.361089999999999911e+00 1.505470000000000041e+01 1.701559999999999917e+01 1.235289999999999999e+01 5.499150000000000205e+00 3.331679999999999975e+00 1.478410000000000046e+01 1.115509999999999913e+01 1.301609999999999978e+01 8.528560000000000585e+00 2.293600000000000083e-01 1.104710000000000036e+01 1.569239999999999924e+01 1.322819999999999929e+01 1.506670000000000087e+01 1.086839999999999939e+01 3.217109999999999914e+00 4.391930000000000334e+00 1.715159999999999840e+01 1.928320000000000078e+01 1.500300000000000011e+01 6.279169999999999696e+00 3.147860000000000102e+00 2.061799999999999855e+00 2.480249999999999844e+00 2.264789999999999992e+01 2.733929999999999971e+00 5.870709999999999873e+00 9.061650000000000205e+00 1.675440000000000040e+01 1.229349999999999987e+01 1.759750000000000014e+01 1.973370000000000068e+00 1.604289999999999949e+01 4.125910000000000188e+00 1.141920000000000002e+01 6.018819999999999837e+00 1.542950000000000088e+01 6.345550000000000246e+00 1.080460000000000065e+01 2.499559999999999782e+00 8.160970000000000724e+00 3.660210000000000186e+00 1.857550000000000168e+01 1.846519999999999939e+00 2.219399999999999817e+00 5.880460000000000242e+00 6.922800000000000065e-01 1.464199999999999946e+01 1.855600000000000094e+01 2.319970000000000088e+00 1.087079999999999913e+01 1.578059999999999974e+01 2.097230000000000150e+00 1.134779999999999944e+01 2.261339999999999861e+01 8.520929999999999893e+00 1.708079999999999998e+01 2.967540000000000067e+00 1.107939999999999969e+01 2.618660000000000210e+00 2.200850000000000151e+01 1.073869999999999969e+01 1.003839999999999932e+01 1.264039999999999964e+01 1.479920000000000080e+01 1.084880000000000067e+01 2.168779999999999930e+01 1.904249999999999998e+00 5.583050000000000068e+00 5.646259999999999835e+00 1.929489999999999927e+00 6.891879999999999562e+00 2.486540000000000106e+01 2.756270000000000220e+00 1.528780000000000072e+01 7.039270000000000138e+00 1.468110000000000070e+01 1.506450000000000067e+01 2.102329999999999899e+01 8.086710000000000065e+00 4.563460000000000072e+00 6.044089999999999741e+00 1.486669999999999980e+01 1.920479999999999965e+00 1.359229999999999983e+01 1.326089999999999947e+01 1.730580000000000140e+01 6.737429999999999808e+00 1.003509999999999991e+01 1.475309999999999988e+01 1.976079999999999970e+01 2.328230000000000022e+00 1.142259999999999920e+01 5.567870000000000097e+00 2.030720000000000081e+00 6.495549999999999713e+00 1.247719999999999985e+01 1.560670000000000002e+01 1.545279999999999987e+01 3.356920000000000126e+00 4.150920000000000165e+00 1.252309999999999945e+01 9.432650000000000645e+00 5.849630000000000329e+00 1.413350000000000106e+00 1.859809999999999874e+01 1.119890000000000008e+01 6.163569999999999993e+00 9.048569999999999780e+00 1.133660000000000068e+01 1.543810000000000038e+01 4.324539999999999829e+00 1.272330000000000005e+01 4.028599999999999959e-01 1.267660000000000053e+01 1.938299999999999912e+00 2.245880000000000098e+00 2.620190000000000019e+00 7.964570000000000149e+00 4.025089999999999613e+00 1.194229999999999947e+01 3.242659999999999876e+00 1.077079999999999949e+01 2.953500000000000014e+00 2.628950000000000120e+00 1.078880000000000017e+01 1.934209999999999852e+01 1.537969999999999970e+01 6.796630000000000393e+00 6.331430000000000113e+00 1.541820000000000057e+01 1.455030000000000001e+01 1.292580000000000062e+01 1.114010000000000034e+01 1.124119999999999919e+01 9.452930000000000277e+00 1.040949999999999953e+01 1.065670000000000073e+01 2.479710000000000036e+01 9.012259999999999494e+00 7.820190000000000197e+00 1.549300000000000033e+01 4.994539999999999758e+00 4.092660000000000409e+00 2.176139999999999830e+01 6.296059999999999768e+00 1.074329999999999963e+01 8.129020000000000579e+00 1.879699999999999926e+00 1.576950000000000074e+01 2.144450000000000145e+01 1.510599999999999987e+01 2.267790000000000195e+00 7.033050000000000246e+00 1.504920000000000080e+01 1.904330000000000078e+00 1.861159999999999926e+01 1.348499999999999943e+01 1.267570000000000086e+01 9.001070000000000348e+00 1.250399999999999956e+01 1.238480000000000025e+01 1.828509999999999991e+01 4.612459999999999560e+00 8.643029999999999546e+00 4.787199999999999789e-01 4.426350000000000229e+00 8.794129999999999114e+00 1.327299999999999969e+01 6.019540000000000113e+00 2.671149999999999913e+00 2.480819999999999936e+01 6.112930000000000419e+00 2.671959999999999891e+00 1.529049999999999976e+01 1.457390000000000008e+01 6.276720000000000077e+00 2.296020000000000039e+01 1.309040000000000070e+01 8.578049999999999287e+00 1.304969999999999963e+01 1.262500000000000000e+01 6.479999999999999649e-03 3.284900000000000042e-01 1.056409999999999982e+01 1.989109999999999934e+00 1.271349999999999980e+01 1.409210000000000074e+00 9.636720000000000397e+00 9.060600000000000875e+00 4.764479999999999826e+00 8.644940000000000069e+00 1.944269999999999854e+01 3.895700000000000163e+00 4.307599999999999763e-01 7.205820000000000114e+00 2.011199999999999932e-01 1.717830000000000013e+01 1.497930000000000028e+01 1.353069999999999951e+01 9.164130000000000109e+00 6.655560000000000365e+00 1.461389999999999922e+01 5.695240000000000080e+00 1.631070000000000064e+01 1.116220000000000034e+01 1.930790000000000006e+00 4.219599999999999795e+00 1.238569999999999993e+01 1.697800000000000153e+01 1.903999999999999915e+01 2.772499999999999964e+00 2.729719999999999924e+00 9.146770000000000067e+00 8.891149999999999665e+00 1.179490000000000016e+01 1.855499999999999972e+01 7.349109999999999587e+00 1.032789999999999964e+01 1.149269999999999925e+01 6.601479999999999571e+00 1.055310000000000059e+01 2.208360000000000056e+01 1.540290000000000070e+01 2.289050000000000029e+00 1.040140000000000065e+01 1.500779999999999959e+01 1.856680000000000108e+00 2.265749999999999886e+01 1.586200000000000010e+01 1.071870000000000012e+01 1.566970000000000063e+01 1.242399999999999949e+01 1.276280000000000037e+01 2.225120000000000076e+01 7.409410000000000274e+00 2.104859999999999953e+00 3.068109999999999893e+00 1.953799999999999981e+00 1.727779999999999916e+01 1.732979999999999876e+01 6.750860000000000305e+00 1.092159999999999975e+01 2.475169999999999959e+01 7.017159999999999620e+00 1.048799999999999955e+01 1.432249999999999979e+01 1.074719999999999942e+01 6.644219999999999793e+00 5.815050000000000274e+00 1.680470000000000041e+01 4.518419999999999881e+00 1.730399999999999849e+01 1.493350000000000044e+01 1.104780000000000051e+01 2.504210000000000136e+01 1.109609999999999985e+01 1.148470000000000013e+01 1.555690000000000062e+01 4.342080000000000162e+00 4.160129999999999661e+00 2.834600000000000009e+00 6.554030000000000022e+00 6.554109999999999658e+00 8.956100000000000172e-01 1.087509999999999977e+01 1.142849999999999966e+01 5.666800000000000281e+00 6.682039999999999758e+00 1.427190000000000047e+01 1.402200000000000024e+01 1.534299999999999997e+01 1.072259999999999991e+01 9.281200000000000117e+00 1.494120000000000026e+01 6.900199999999999889e+00 1.305049999999999955e+01 1.507939999999999969e+01 1.551740000000000030e+01 4.417400000000000215e-01 2.336250000000000160e+00 2.641199999999999992e+00 1.263719999999999999e+01 6.695899999999999963e+00 6.730599999999999916e+00 4.040980000000000238e+00 6.460379999999999789e+00 7.105669999999999931e+00 1.908810000000000073e+01 7.114989999999999704e+00 1.531550000000000011e+01 2.450710000000000122e+01 7.417089999999999961e+00 1.678409999999999869e+01 1.655799999999999983e+01 1.329950000000000010e+01 4.467900000000000205e+00 2.146760000000000090e+01 1.455199999999999960e+01 5.521040000000000170e+00 1.011940000000000062e+01 1.686990000000000123e+01 1.723039999999999949e+01 2.293349999999999866e+01 1.530889999999999951e+01 1.511200000000000010e+01 1.024419999999999931e+01 6.014490000000000336e+00 1.499779999999999980e+01 2.537230000000000096e+00 2.178580000000000183e+00 2.196410000000000196e+00 1.564480000000000004e+01 8.351259999999999906e+00 8.909319999999999240e+00 3.072280000000000122e+00 6.349219999999999864e+00 6.861329999999999707e+00 2.241509999999999891e+01 4.689759999999999707e+00 1.710979999999999990e+01 1.221950000000000092e+00 2.607320000000000082e+00 5.891630000000000145e+00 1.802509999999999835e+01 1.712930000000000064e+01 8.497909999999999187e+00 2.567429999999999879e+00 1.689089999999999847e+01 7.969689999999999941e+00 1.534650000000000070e+01 6.677240000000000286e+00 1.172700000000000031e+01 5.817529999999999646e+00 8.557650000000000645e+00 4.941130000000000244e+00 2.457389999999999830e+01 6.532619999999999649e+00 1.455109999999999992e+01 6.412480000000000402e+00 6.270089999999999719e+00 1.468280000000000030e+01 2.157339999999999947e+01 1.242329999999999934e+01 4.032189999999999941e+00 8.856909999999999172e+00 1.706830000000000069e+01 8.123239999999999128e+00 2.184329999999999927e+01 1.514460000000000051e+01 1.496540000000000070e+01 7.145819999999999617e+00 9.112120000000000886e+00 9.049699999999999633e+00 2.167820000000000036e+01 8.314450000000000784e+00 1.715139999999999887e+01 9.248540000000000205e+00 1.054260000000000019e+01 1.567600000000000016e+01 2.243479999999999919e+01 6.248560000000000336e+00 7.026469999999999771e+00 6.823940000000000339e+00 6.304929999999999701e+00 1.076970000000000027e+01 1.783370000000000033e+01 1.566999999999999993e+01 3.321940000000000115e+00 5.917000000000000037e-01 1.216040000000000010e+00 2.136629999999999807e+00 2.013840000000000074e+01 1.617129999999999868e+01 1.062540000000000084e+01 1.185979999999999990e+01 1.238339999999999996e+01 5.851099999999999746e+00 3.019909999999999872e+00 6.912110000000000198e+00 1.864419999999999966e+00 7.620529999999999582e+00 1.064129999999999932e+01 1.724790000000000045e+00 1.733869999999999933e+01 9.509560000000000457e+00 8.765879999999999228e+00 9.339809999999999945e+00 6.911800000000000388e+00 1.480969999999999942e+01 1.874769999999999825e+01 1.550919999999999987e+01 2.176190000000000069e+00 4.075429999999999886e+00 2.017469999999999875e+00 6.354499999999999815e+00 2.112160000000000082e+01 1.677880000000000038e+01 7.360470000000000290e+00 8.703659999999999286e+00 1.420420000000000016e+01 1.491810000000000080e+01 1.568769999999999953e+01 6.183840000000000003e+00 1.755759999999999987e+00 1.159210000000000029e+01 8.701420000000000599e+00 1.709390000000000143e+01 2.269340000000000046e+01 8.927160000000000650e+00 1.345839999999999925e+01 1.233309999999999995e+01 9.055529999999999191e+00 1.305150000000000077e+01 2.437669999999999959e+01 5.479210000000000136e+00 6.539329999999999643e+00 1.456049999999999933e+01 7.493499999999999606e-01 3.981329999999999814e+00 2.397719999999999985e+01 1.295120000000000005e+01 8.085570000000000590e+00 1.898890000000000100e+01 1.720599999999999907e+00 1.544749999999999979e+01 2.504189999999999827e+01 4.197409999999999641e+00 8.849669999999999703e+00 2.266310000000000002e+01 4.266130000000000422e+00 3.129999999999999970e-03 2.275169999999999959e+01 1.357510000000000083e+01 8.327719999999999345e+00 9.935850000000000293e+00 1.320640000000000036e+01 2.051000000000000045e-02 9.980130000000000834e+00 1.276420000000000066e+01 1.723150000000000048e+01 2.227929999999999922e+01 8.256449999999999179e+00 1.308399999999999963e+01 2.770750000000000046e+00 3.191700000000000093e-01 4.681779999999999831e+00 1.995190000000000019e+00 1.722790000000000177e+01 3.903519999999999879e+00 1.443590000000000018e+01 1.717119999999999891e+01 4.362989999999999924e+00 2.101389999999999958e+01 2.349400000000000099e-01 1.307450000000000045e+01 8.697089999999999321e+00 8.496140000000000470e+00 1.298690000000000033e+01 8.782890000000000086e+00 8.811139999999999972e+00 1.248930000000000007e+01 2.128729999999999833e+01 4.478869999999999685e+00 4.309700000000000197e-01 3.759370000000000100e+00 4.297130000000000116e+00 8.479449999999999932e+00 3.749810000000000088e+00 4.480389999999999873e+00 8.569789999999999353e+00 1.648379999999999868e+01 1.269389999999999930e+01 8.500609999999999999e+00 1.613759999999999906e+01 4.228780000000000427e+00 8.526339999999999364e+00 9.593070000000000874e+00 4.308069999999999844e+00 1.723039999999999949e+01 1.028860000000000063e+01 1.294999999999999929e+01 8.799210000000000420e+00 2.277430000000000021e+01 8.796789999999999665e+00 4.303659999999999819e+00 2.327049999999999841e+00 8.399739999999999540e+00 4.202329999999999899e+00 1.480930000000000035e+01 8.847340000000000870e+00 1.321610000000000085e+01 1.555289999999999928e+01 1.711250000000000071e+01 1.260929999999999929e+01 2.557620000000000005e+00 1.537900000000000100e-01 1.318440000000000012e+01 1.492769999999999975e+01 1.473200000000000065e-01 4.233600000000000030e+00 8.386240000000000805e+00 1.707799999999999940e+01 1.325370000000000026e+01 2.114630000000000010e+01 8.261400000000000077e+00 5.025789999999999758e+00 9.010070000000000690e+00 8.428639999999999688e+00 4.506020000000000358e+00 2.127309999999999945e+01 4.175239999999999618e+00 1.709570000000000078e+01 1.577529999999999966e+01 1.351159999999999961e+01 1.779499999999999971e-01 3.748990000000000045e+00 1.293740000000000023e+01 1.728119999999999834e+01 1.618049999999999855e+01 1.295180000000000042e+01 8.794219999999999260e+00 3.641340000000000021e+00 4.239679999999999893e+00 4.184339999999999726e+00 1.215010000000000012e+01 4.009210000000000385e+00 4.567910000000000359e+00 2.507620000000000005e+01 4.395410000000000039e+00 1.272090000000000032e+01 1.301650000000000063e+01 4.267120000000000246e+00 1.321649999999999991e+01 2.482999999999999829e+01 1.308109999999999928e+01 4.187009999999999899e+00 1.240900000000000070e+01 1.263860000000000028e+01 4.130720000000000169e+00 2.500179999999999936e+01 1.307259999999999955e+01 1.245829999999999949e+01 1.226900000000000013e+01 1.290080000000000027e+01 1.306259999999999977e+01 2.191700000000000037e-01 8.713839999999999364e+00 8.894199999999999662e+00 6.332539999999999836e+00 8.638059999999999405e+00 8.781150000000000233e+00 1.846859999999999857e+01 8.857469999999999288e+00 1.235600000000000032e-01 6.099479999999999791e+00 8.257419999999999760e+00 3.998000000000000165e-02 1.920649999999999835e+01 3.906999999999999917e-01 8.665039999999999409e+00 5.823660000000000281e+00 1.686439999999999984e+01 8.975120000000000431e+00 1.879139999999999944e+01 1.727240000000000109e+01 1.709189999999999898e+01 6.419959999999999667e+00 1.687659999999999982e+01 2.801999999999999977e-02 1.867940000000000111e+01 1.700159999999999982e+01 6.573859999999999815e+00 1.089530000000000109e+00 1.723100000000000165e+01 5.931700000000000195e+00 1.348290000000000077e+01 1.690909999999999869e+01 1.442430000000000057e+01 1.406490000000000018e+00 3.481099999999999750e-01 1.485829999999999984e+01 1.356470000000000020e+01 9.048539999999999139e+00 6.070369999999999600e+00 1.579679999999999973e+00 8.505440000000000111e+00 6.071460000000000079e+00 1.385849999999999937e+01 8.245530000000000470e+00 1.456719999999999970e+01 1.186320000000000041e+00 8.831149999999999167e+00 1.472029999999999994e+01 1.422550000000000026e+01 1.643799999999999983e-01 2.172359999999999847e+00 9.089669999999999916e+00 1.723819999999999908e+01 2.464150000000000063e+00 2.218519999999999825e+01 3.214699999999999780e-01 1.124109999999999943e+01 1.023920000000000030e+01 1.692899999999999849e+01 1.133440000000000047e+01 2.233259999999999934e+01 8.258539999999999992e+00 2.839379999999999793e+00 9.963689999999999714e+00 8.141759999999999664e+00 3.073510000000000186e+00 2.266600000000000037e+01 8.733029999999999404e+00 1.082300000000000040e+01 9.734460000000000335e+00 8.571410000000000196e+00 1.134539999999999971e+01 2.316049999999999898e+01 1.728620000000000090e+01 6.989550000000000374e+00 4.773959999999999759e+00 1.687419999999999831e+01 7.151989999999999625e+00 1.768309999999999960e+01 1.725329999999999941e+01 1.539770000000000039e+01 5.448920000000000208e+00 1.682939999999999969e+01 1.615439999999999898e+01 1.702260000000000062e+01 8.705859999999999488e+00 7.092340000000000089e+00 5.185019999999999740e+00 8.801370000000000360e+00 6.574259999999999771e+00 1.768909999999999982e+01 9.230589999999999407e+00 1.603389999999999915e+01 4.713879999999999626e+00 8.912509999999999266e+00 1.585069999999999979e+01 1.795749999999999957e+01 7.107200000000000184e-01 2.816570000000000018e+00 7.945499999999999785e-01 2.977899999999999991e-01 2.002949999999999786e+00 1.372799999999999976e+01 1.706299999999999883e+01 1.079379999999999917e+01 1.468760000000000066e+00 7.804799999999999516e-01 1.127399999999999913e+01 1.408719999999999928e+01 8.494590000000000529e+00 2.476710000000000189e+00 1.217340000000000089e+00 8.000890000000000057e+00 2.342789999999999928e+00 1.403669999999999973e+01 8.589760000000000062e+00 1.104170000000000051e+01 1.447119999999999962e+00 8.988340000000000884e+00 1.156339999999999968e+01 1.447780000000000022e+01 1.836359999999999992e+00 8.245160000000000267e+00 7.195969999999999978e+00 1.324840000000000018e+00 8.897069999999999368e+00 1.999490000000000123e+01 1.752089999999999925e+00 3.717099999999999849e-01 7.381020000000000358e+00 1.397950000000000026e+00 1.674249999999999972e+01 1.956820000000000093e+01 1.063369999999999926e+01 8.623849999999999127e+00 7.131380000000000052e+00 1.032600000000000051e+01 9.436909999999999243e+00 1.943799999999999883e+01 1.031639999999999979e+01 8.330000000000000598e-03 7.692090000000000316e+00 9.890029999999999433e+00 4.029400000000000204e-01 2.070459999999999923e+01 1.754459999999999908e+00 4.456439999999999735e+00 3.511639999999999873e+00 1.433289999999999953e+00 4.304160000000000430e+00 1.617200000000000060e+01 1.774310000000000054e+00 1.289830000000000076e+01 3.201490000000000169e+00 1.402609999999999912e+00 1.342559999999999931e+01 1.670919999999999916e+01 1.043430000000000035e+01 4.058580000000000076e+00 3.603790000000000049e+00 1.007150000000000034e+01 4.003040000000000376e+00 1.613429999999999964e+01 1.027289999999999992e+01 1.311609999999999943e+01 3.880809999999999871e+00 1.048279999999999923e+01 1.309740000000000038e+01 1.702590000000000003e+01 2.251520000000000188e+00 4.308799999999999741e+00 7.600290000000000212e+00 1.552289999999999948e+00 4.703520000000000145e+00 1.980310000000000059e+01 2.018229999999999968e+00 1.299760000000000026e+01 7.178230000000000111e+00 1.735130000000000061e+00 1.322359999999999935e+01 2.061830000000000140e+01 9.858040000000000802e+00 4.477759999999999962e+00 7.707010000000000360e+00 1.014850000000000030e+01 4.199819999999999887e+00 2.010040000000000049e+01 1.016360000000000063e+01 1.276249999999999929e+01 7.459830000000000183e+00 1.071380000000000088e+01 1.279119999999999990e+01 2.041829999999999856e+01 2.422219999999999818e+00 8.362550000000000594e+00 1.061480000000000068e+01 2.185449999999999893e+00 8.707700000000000884e+00 2.387709999999999866e+01 2.536259999999999959e+00 2.769199999999999995e-01 1.110820000000000007e+01 2.120610000000000106e+00 1.873499999999999888e-01 2.389780000000000015e+01 1.152120000000000033e+01 8.367960000000000065e+00 1.097940000000000005e+01 1.127669999999999995e+01 8.600229999999999819e+00 2.419209999999999994e+01 1.114010000000000034e+01 8.142000000000000626e-02 1.102899999999999991e+01 1.122010000000000041e+01 4.779599999999999960e-01 2.379530000000000101e+01 2.658450000000000202e+00 1.560799999999999965e-01 2.225470000000000059e+00 2.497279999999999944e+00 1.689780000000000015e+01 1.465460000000000029e+01 2.726090000000000124e+00 8.877240000000000464e+00 2.179749999999999854e+00 2.530740000000000212e+00 8.511760000000000659e+00 1.506690000000000040e+01 1.159650000000000070e+01 1.710069999999999979e+01 2.652789999999999981e+00 1.116399999999999970e+01 9.721000000000000474e-02 1.491569999999999929e+01 1.136059999999999981e+01 8.608389999999999986e+00 2.333299999999999930e+00 1.102169999999999916e+01 8.586100000000000065e+00 1.449789999999999957e+01 2.338179999999999925e+00 4.416900000000000048e+00 1.137310000000000088e+01 2.834369999999999834e+00 4.810730000000000395e+00 2.351379999999999981e+01 3.027309999999999945e+00 1.214710000000000001e+01 1.161829999999999963e+01 2.425600000000000200e+00 1.321819999999999951e+01 2.404889999999999972e+01 1.137589999999999968e+01 4.286810000000000009e+00 1.092420000000000080e+01 1.108050000000000068e+01 4.157000000000000028e+00 2.386469999999999914e+01 1.142389999999999972e+01 1.239419999999999966e+01 1.117479999999999940e+01 1.109500000000000064e+01 1.329889999999999972e+01 2.434410000000000096e+01 4.336859999999999715e+00 6.335020000000000095e+00 4.619360000000000355e+00 4.779880000000000351e+00 6.718259999999999899e+00 1.765419999999999945e+01 4.411889999999999645e+00 1.598109999999999964e+01 5.262109999999999843e+00 4.263950000000000351e+00 1.573719999999999963e+01 1.728229999999999933e+01 1.309559999999999924e+01 6.945750000000000313e+00 4.808460000000000178e+00 1.278400000000000070e+01 6.615400000000000169e+00 1.731899999999999906e+01 1.370190000000000019e+01 1.561079999999999934e+01 4.950219999999999843e+00 1.273639999999999972e+01 1.551350000000000051e+01 1.717520000000000024e+01 3.961819999999999897e+00 2.762020000000000142e+00 7.354699999999999571e-01 4.494650000000000034e+00 2.712990000000000013e+00 1.347770000000000046e+01 4.390710000000000335e+00 1.143060000000000009e+01 7.185700000000000420e-01 4.575249999999999595e+00 1.136350000000000016e+01 1.467200000000000060e+01 1.289419999999999966e+01 2.576670000000000016e+00 1.007050000000000001e+00 1.257760000000000034e+01 2.817520000000000024e+00 1.388909999999999911e+01 1.299119999999999919e+01 1.128679999999999950e+01 1.269169999999999909e+00 1.330659999999999954e+01 1.103369999999999962e+01 1.357789999999999964e+01 4.885930000000000106e+00 6.560719999999999885e+00 9.000540000000000873e+00 4.255770000000000053e+00 7.059689999999999799e+00 2.104090000000000060e+01 4.177209999999999646e+00 1.548080000000000034e+01 9.119799999999999685e+00 4.145299999999999763e+00 1.553810000000000002e+01 2.106670000000000087e+01 1.318970000000000020e+01 6.691309999999999647e+00 8.584179999999999922e+00 1.304269999999999996e+01 7.138259999999999827e+00 2.152039999999999864e+01 1.311679999999999957e+01 1.527979999999999983e+01 8.938240000000000407e+00 1.246340000000000003e+01 1.534859999999999935e+01 2.078810000000000002e+01 4.095979999999999954e+00 6.096700000000000230e+00 1.158940000000000081e+00 4.333770000000000344e+00 6.327230000000000132e+00 1.266220000000000034e+01 4.156439999999999912e+00 1.475440000000000040e+01 8.261699999999999600e-01 4.190240000000000187e+00 1.457750000000000057e+01 1.360970000000000013e+01 1.269200000000000017e+01 5.932579999999999742e+00 7.632499999999999840e-01 1.271529999999999916e+01 6.308510000000000062e+00 1.317079999999999984e+01 1.327820000000000000e+01 1.449559999999999960e+01 1.549539999999999917e+00 1.293580000000000041e+01 1.437669999999999959e+01 1.286100000000000065e+01 4.468600000000000350e+00 2.279059999999999864e+00 5.024510000000000254e+00 4.312540000000000262e+00 1.609469999999999956e+00 1.699680000000000035e+01 4.569860000000000255e+00 1.029829999999999934e+01 4.852000000000000313e+00 4.242530000000000356e+00 1.054649999999999999e+01 1.752169999999999916e+01 1.314269999999999960e+01 1.814750000000000085e+00 5.089690000000000047e+00 1.285270000000000046e+01 1.630579999999999918e+00 1.767709999999999937e+01 1.333779999999999966e+01 1.040879999999999939e+01 4.671120000000000161e+00 1.264659999999999940e+01 1.026779999999999937e+01 1.747200000000000131e+01 4.791920000000000179e+00 1.683189999999999964e+00 9.337970000000000326e+00 3.687530000000000197e+00 1.781830000000000025e+00 2.105580000000000140e+01 3.843249999999999833e+00 1.002439999999999998e+01 8.393039999999999168e+00 4.155300000000000438e+00 1.053619999999999912e+01 2.106779999999999831e+01 1.351479999999999926e+01 1.838770000000000016e+00 8.651999999999999247e+00 1.307970000000000077e+01 1.644530000000000047e+00 2.076889999999999858e+01 1.323179999999999978e+01 1.016169999999999973e+01 8.561759999999999593e+00 1.259050000000000047e+01 1.048980000000000068e+01 2.162780000000000058e+01 5.692379999999999995e+00 4.064140000000000086e+00 1.093870000000000076e+01 5.852529999999999788e+00 4.613150000000000084e+00 2.394660000000000011e+01 6.275879999999999903e+00 1.258360000000000056e+01 1.171369999999999933e+01 5.746979999999999755e+00 1.327500000000000036e+01 2.345329999999999870e+01 1.505429999999999957e+01 4.029899999999999594e+00 1.183039999999999914e+01 1.448830000000000062e+01 4.048259999999999970e+00 2.381139999999999901e+01 1.495979999999999954e+01 1.243730000000000047e+01 1.118379999999999974e+01 1.421799999999999997e+01 1.326030000000000086e+01 2.395649999999999835e+01 6.336969999999999992e+00 2.434399999999999897e-01 2.481269999999999865e+00 5.920300000000000118e+00 1.699490000000000123e+01 1.467399999999999949e+01 6.224820000000000242e+00 8.565899999999999181e+00 2.412490000000000023e+00 6.185450000000000337e+00 8.628310000000000812e+00 1.498509999999999920e+01 1.499169999999999980e+01 4.192299999999999915e-01 2.346410000000000107e+00 1.438010000000000055e+01 1.729060000000000130e+01 1.468500000000000050e+01 1.463400000000000034e+01 8.771089999999999165e+00 2.407550000000000079e+00 1.468040000000000056e+01 8.690269999999999939e+00 1.504080000000000084e+01 5.693190000000000417e+00 9.317539999999999267e+00 1.103430000000000000e+01 6.120400000000000063e+00 8.987769999999999371e+00 2.366880000000000095e+01 5.850520000000000387e+00 1.684430000000000049e+01 1.147499999999999964e+01 6.066860000000000142e+00 1.091599999999999931e-01 2.374340000000000117e+01 1.538269999999999982e+01 8.295420000000000016e+00 1.106339999999999968e+01 1.492800000000000082e+01 8.976739999999999498e+00 2.349879999999999924e+01 1.477890000000000015e+01 1.611299999999999955e-01 1.146299999999999919e+01 1.458709999999999951e+01 1.695710000000000051e+01 2.372540000000000049e+01 6.952289999999999637e+00 4.369589999999999641e+00 3.358369999999999855e+00 6.800740000000000229e+00 4.709509999999999863e+00 1.590879999999999939e+01 6.418090000000000295e+00 1.308300000000000018e+01 3.987410000000000121e+00 7.018729999999999691e+00 1.291690000000000005e+01 1.621450000000000102e+01 1.558510000000000062e+01 4.177950000000000053e+00 3.138049999999999784e+00 1.536260000000000048e+01 3.727110000000000145e+00 1.556719999999999970e+01 1.559929999999999950e+01 1.290889999999999915e+01 3.938719999999999999e+00 1.551709999999999923e+01 1.288209999999999944e+01 1.537589999999999968e+01 7.167309999999999626e+00 8.985670000000000712e+00 7.619369999999999976e+00 7.150159999999999627e+00 9.138909999999999201e+00 1.985640000000000072e+01 7.058159999999999989e+00 1.685419999999999874e+01 7.127900000000000347e+00 6.742029999999999745e+00 1.682849999999999824e+01 2.018110000000000070e+01 1.604799999999999827e+01 9.023880000000000123e+00 7.259949999999999903e+00 1.511139999999999972e+01 9.167500000000000426e+00 1.969190000000000040e+01 1.566779999999999973e+01 1.725989999999999824e+01 7.573220000000000063e+00 1.541169999999999973e+01 1.728519999999999968e+01 1.997469999999999857e+01 6.690310000000000201e+00 4.730570000000000164e+00 7.970869999999999678e+00 6.775610000000000355e+00 4.490590000000000082e+00 1.998310000000000031e+01 6.408319999999999794e+00 1.320139999999999958e+01 8.138529999999999376e+00 6.954699999999999882e+00 1.248320000000000007e+01 2.005770000000000053e+01 1.575210000000000043e+01 4.793090000000000295e+00 7.281290000000000262e+00 1.521460000000000079e+01 4.095860000000000056e+00 2.000789999999999935e+01 1.567280000000000051e+01 1.283649999999999913e+01 7.872550000000000381e+00 1.563289999999999935e+01 1.345449999999999946e+01 1.962959999999999994e+01 8.664160000000000750e+00 2.112420000000000186e+00 5.272820000000000285e+00 7.946780000000000399e+00 1.520529999999999937e+00 1.783129999999999882e+01 8.654120000000000701e+00 1.045149999999999935e+01 5.156259999999999621e+00 8.243439999999999657e+00 9.767289999999999139e+00 1.681680000000000064e+01 1.704040000000000177e+01 1.292920000000000069e+00 5.310279999999999667e+00 2.897999999999999882e-02 1.771889999999999965e+00 1.769790000000000063e+01 5.064400000000000013e-01 1.019260000000000055e+01 4.582510000000000083e+00 1.213299999999999934e-01 1.037110000000000021e+01 1.727520000000000167e+01 8.501400000000000290e+00 6.582799999999999763e+00 1.020630000000000059e+01 8.588979999999999393e+00 6.634809999999999874e+00 2.225560000000000116e+01 8.558149999999999480e+00 1.475489999999999924e+01 1.024300000000000033e+01 8.605430000000000135e+00 1.468410000000000082e+01 2.226660000000000039e+01 1.729830000000000112e+01 5.559040000000000425e+00 9.720390000000000086e+00 1.703399999999999892e+01 5.902700000000000280e+00 2.257460000000000022e+01 3.774399999999999977e-01 1.464550000000000018e+01 1.036439999999999984e+01 1.690249999999999986e+01 1.480739999999999945e+01 2.258559999999999945e+01