5.943950000000000067e-01 7.939230000000000453e-01 -1.535120000000000096e-01 5.133100000000000163e-02 -3.937039999999999984e-01 -8.914579999999999727e-01 3.723099999999999743e-01 -2.524689999999999990e-01 -3.877360000000000251e-01 -2.282379999999999964e-01 7.734950000000000436e-01 -2.025210000000000066e-01 2.830610000000000070e-01 3.513410000000000144e-01 6.323050000000000059e-01 5.930699999999999861e-02 2.495699999999999863e-01 2.118230000000000113e-01 1.206839999999999996e-01 -1.876069999999999960e-01 -2.153229999999999866e-01 -5.046840000000000215e-01 1.161299999999999971e-01 -1.923700000000000063e-02 1.303670000000000107e-01 -3.422020000000000062e-01 -1.715859999999999885e-01 -1.121520000000000017e-01 4.644500000000000017e-02 -2.172310000000000074e-01 -5.240470000000000406e-01 -9.179999999999999792e-04 2.945260000000000100e-01 1.332819999999999894e+00 -1.021880000000000011e-01 -1.810239999999999905e-01 -3.481690000000000063e-01 -1.490209999999999868e-01 2.096230000000000038e-01 -8.433279999999999665e-01 1.920689999999999897e-01 -6.357140000000000013e-01 -9.639360000000000150e-01 3.501500000000000168e-01 1.256440000000000001e+00 3.697389999999999843e-01 2.214069999999999927e-01 -3.658040000000000180e-01 5.900619999999999754e-01 -1.503408999999999995e+00 7.440649999999999764e-01 -4.531199999999999811e-02 -1.979269999999999918e-01 -7.428999999999999840e-03 1.035077999999999943e+00 -2.658159999999999967e-01 -8.498580000000000023e-01 2.958399999999999919e-02 9.207899999999999419e-02 2.111550000000000094e-01 -2.885619999999999852e-01 -2.877859999999999863e-01 4.128699999999999731e-02 -1.816100000000000006e-02 2.600900000000000087e-02 3.577060000000000239e-01 -6.899299999999999877e-02 -1.654329999999999967e-01 1.852459999999999940e-01 -2.577639999999999931e-01 2.686600000000000099e-02 -3.092489999999999961e-01 7.554299999999999904e-02 6.105080000000000506e-01 4.753789999999999960e-01 3.451980000000000048e-01 -1.031228000000000034e+00 -3.340099999999999736e-01 2.244109999999999994e-01 2.201999999999999964e-03 5.592260000000000009e-01 -3.606269999999999754e-01 -7.171000000000000291e-03 -2.533580000000000276e-01 -4.574159999999999893e-01 3.788389999999999813e-01 -1.476729999999999987e-01 1.028840000000000032e-01 -2.695799999999999863e-01 -9.106159999999999810e-01 6.864149999999999974e-01 3.611039999999999806e-01 2.393929999999999947e-01 4.265399999999999747e-02 1.385969999999999980e-01 8.633180000000000298e-01 -3.996359999999999912e-01 8.208940000000000126e-01 4.202759999999999829e-01 1.979100000000000026e-01 -4.531890000000000085e-01 -1.707410000000000039e-01 2.096179999999999988e-01 2.923319999999999808e-01 3.702150000000000163e-01 2.167800000000000171e+00 3.620760000000000089e-01 -4.509790000000000187e-01 1.250300000000000022e-01 -5.237910000000000066e-01 2.929680000000000062e-01 -3.029580000000000051e-01 -3.395200000000000301e-02 -3.172960000000000225e-01 -1.232540000000000024e-01 4.273069999999999924e-01 -6.558999999999999726e-03 -4.104430000000000023e-01 -8.678800000000000403e-02 6.424969999999999848e-01 -1.087850000000000067e-01 -1.040013000000000076e+00 1.235100000000000087e+00 -2.906119999999999814e-01 6.898450000000000415e-01 -1.356249999999999956e-01 2.597280000000000144e-01 5.685400000000000176e-02 4.889919999999999822e-01 4.607530000000000237e-01 -3.053469999999999795e-01 -5.633799999999999919e-02 -1.746910000000000129e-01 2.717729999999999868e-01 -6.208970000000000322e-01 -1.850519999999999943e-01 4.003999999999999747e-03 2.451280000000000125e-01 -5.533970000000000278e-01 -1.114857999999999905e+00 -1.144960000000000006e-01 5.529209999999999958e-01 2.110370000000000024e-01 1.973610000000000086e-01 -6.140590000000000215e-01 2.641930000000000112e-01 2.755600000000000271e-01 -8.379389999999999894e-01 -1.108470999999999984e+00 -4.768399999999999722e-02 -8.286700000000000177e-01 2.309759999999999869e-01 8.413500000000000145e-02 -1.567325000000000079e+00 6.056979999999999587e-01 -1.054505999999999943e+00 -5.838000000000000307e-03 4.430669999999999886e-01 -5.837099999999999927e-02 4.279729999999999923e-01 -9.746599999999999708e-02 -5.374149999999999761e-01 2.639500000000000179e-01 -3.335319999999999951e-01 -3.845230000000000037e-01 -6.318100000000000105e-02 7.875609999999999555e-01 -5.502740000000000409e-01 -1.252240000000000020e-01 -2.444209999999999994e-01 3.707400000000000279e-02 -7.492109999999999603e-01 -4.846559999999999757e-01 -1.298429999999999862e-01 2.537960000000000216e-01 4.086890000000000245e-01 -6.502499999999999947e-02 -4.493579999999999797e-01 5.914110000000000200e-01 -8.497580000000000133e-01 -1.833329999999999960e-01 -5.394550000000000178e-01 1.831139999999999990e-01 5.636999999999999789e-01 -9.000000000000000567e-05 -4.194890000000000008e-01 2.312019999999999909e-01 1.111110000000000014e-01 6.026900000000000313e-02 -1.896259999999999890e-01 3.200830000000000064e-01 1.299800000000000122e-01 3.044029999999999792e-01 -6.422050000000000258e-01 -8.533499999999999419e-02 3.105859999999999732e-01 1.622939999999999938e-01 1.496049999999999880e-01 3.200230000000000019e-01 -1.701610000000000067e-01 2.469939999999999913e-01 -2.348079999999999889e-01 -1.992629999999999957e-01 4.510850000000000137e-01 -7.384140000000000148e-01 1.069890000000000008e-01 -2.466099999999999959e-01 9.521969999999999601e-01 8.371979999999999977e-01 -1.520299999999999985e-01 3.937100000000000322e-02 -7.993100000000000205e-02 1.542010000000000047e-01 -3.747999999999999943e-02 -1.591100000000000153e-02 8.830699999999999661e-02 3.042199999999999904e-01 5.110900000000000165e-02 5.761269999999999447e-01 -1.842169999999999919e-01 -1.998260000000000036e-01 3.587100000000000011e-02 5.317180000000000240e-01 2.612479999999999802e-01 8.067119999999999846e-01 1.749459999999999904e-01 -3.913900000000000018e-02 3.828289999999999749e-01 -2.571689999999999809e-01 5.523600000000000038e-02 6.955100000000000171e-02 -3.342720000000000136e-01 -9.251899999999999569e-01 3.060220000000000162e-01 -3.849710000000000076e-01 -4.909330000000000083e-01 -6.522470000000000212e-01 -6.599199999999999511e-01 -4.129780000000000117e-01 -6.033410000000000162e-01 5.346279999999999921e-01 -3.173750000000000182e-01 3.911229999999999984e-01 2.551579999999999959e-01 5.467099999999999738e-02 8.978999999999999482e-02 5.173550000000000093e-01 -6.087430000000000341e-01 -8.234500000000000153e-02 -3.943150000000000266e-01 -2.194689999999999974e-01 -1.997819999999999874e-01 5.112849999999999895e-01 -7.172699999999999909e-02 -3.466730000000000089e-01 -2.483110000000000039e-01 -5.108730000000000215e-01 2.144169999999999965e-01 -1.660999999999999976e-02 -4.065900000000000070e-01 6.981910000000000061e-01 4.968899999999999706e-02 -2.371939999999999882e-01 -1.236870000000000053e-01 -2.501689999999999747e-01 -1.310448999999999975e+00 1.691130000000000133e-01 2.184740000000000015e-01 -7.874499999999999833e-01 -3.457560000000000078e-01 4.469710000000000072e-01 -1.071763000000000021e+00 5.145700000000000274e-02 -2.184270000000000100e-01 -1.831419999999999992e-01 -1.054500000000000055e-02 -3.295000000000000186e-03 -1.729130000000000111e-01 5.473409999999999664e-01 1.099741999999999997e+00 1.352919999999999956e-01 -1.248515000000000041e+00 8.135229999999999961e-01 -5.361409999999999787e-01 -2.490200000000000052e-02 -3.128650000000000042e-01 3.325910000000000255e-01 -6.831880000000000175e-01 5.023750000000000160e-01 8.683870000000000200e-01 -2.328900000000000067e-02 5.926109999999999989e-01 -6.678929999999999589e-01 5.044889999999999652e-01 4.328929999999999723e-01 6.718999999999999972e-02 2.330409999999999981e-01 4.291349999999999887e-01 6.988959999999999617e-01 1.530140000000000111e-01 3.689009999999999789e-01 -5.532200000000000450e-01 -3.337299999999999989e-02 -1.121510000000000007e-01 4.430640000000000134e-01 2.429999999999999938e-01 1.643489999999999951e-01 1.195799000000000056e+00 6.314629999999999965e-01 1.657882000000000078e+00 -6.586849999999999650e-01 4.904499999999999832e-02 -8.824670000000000014e-01 2.470390000000000086e-01 -1.740609999999999935e-01 7.983510000000000328e-01 -2.773639999999999994e-01 -9.054800000000000348e-02 -4.557939999999999769e-01 2.728970000000000007e-01 9.688700000000000090e-02 2.666180000000000216e-01 -3.164529999999999843e-01 7.517070000000000141e-01 -5.858409999999999451e-01 3.444880000000000164e-01 2.805000000000000271e-01 -5.465299999999999603e-01 9.296300000000000396e-02 -5.845089999999999453e-01 7.821200000000000374e-02 8.658899999999999930e-02 4.838629999999999876e-01 9.792900000000000216e-02 -1.780145000000000088e+00 -8.094500000000000028e-01 -1.955099999999999894e-02 3.013219999999999787e-01 -1.512120000000000131e-01 3.564459999999999851e-01 5.558880000000000488e-01 3.482509999999999772e-01 -2.356000000000000021e-03 8.758299999999999419e-02 2.010490000000000055e-01 -7.466100000000000514e-02 1.482329999999999925e+00 -5.098449999999999926e-01 -1.327550000000000119e-01 5.327070000000000416e-01 -3.998510000000000120e-01 5.808370000000000477e-01 -7.886929999999999774e-01 2.090879999999999961e-01 -2.725190000000000112e-01 3.869159999999999822e-01 -6.457789999999999919e-01 -8.630200000000000371e-02 2.576220000000000176e-01 -3.721050000000000191e-01 -8.061340000000000172e-01 7.072699999999999820e-02 -1.738858000000000015e+00 -7.516100000000000558e-02 4.623289999999999900e-01 1.510982000000000047e+00 4.033550000000000191e-01 -2.753579999999999917e-01 -2.732040000000000024e-01 -4.231690000000000174e-01 1.216500000000000047e-02 -2.051260000000000028e-01 -1.926100000000000034e-01 9.265999999999999931e-03 -3.026280000000000081e-01 4.858799999999999925e-02 -8.832020000000000426e-01 1.472099999999999971e-02 -7.001239999999999686e-01 1.809979999999999922e-01 -1.072700000000000042e-01 1.809790000000000010e-01 -7.209200000000000053e-01 8.571609999999999507e-01 1.241913000000000045e+00 2.538239999999999941e-01 1.127039999999999986e-01 2.918049999999999811e-01 -2.482739999999999947e-01 2.256269999999999942e-01 1.184650000000000009e-01 3.105669999999999820e-01 -3.016389999999999905e-01 -9.352009999999999490e-01 2.771159999999999735e-01 -2.865599999999999814e-01 1.316180000000000128e-01 3.569200000000000150e-02 -9.957799999999999985e-02 7.431400000000000228e-01 7.532999999999999419e-02 -3.599080000000000057e-01 -7.685300000000000464e-02 5.844400000000000289e-02 3.714770000000000016e-01 -3.689800000000000024e-02 7.174709999999999699e-01 -2.890170000000000239e-01 -5.159559999999999702e-01 5.034920000000000506e-01 -3.429299999999999710e-02 5.309099999999999930e-01 1.113139999999999963e-01 -5.068510000000000515e-01 -9.911300000000000665e-02 5.513700000000000268e-01 -3.712199999999999944e-01 -2.571100000000000052e-01 -2.046099999999999863e-01 1.857890000000000097e-01 7.679390000000000382e-01 -3.608009999999999828e-01 -1.037300000000000028e-01 -4.095799999999999996e-01 -6.917999999999999670e-03 5.767459999999999809e-01 3.977240000000000220e-01 4.340729999999999866e-01 3.268909999999999871e-01 -7.968300000000000383e-02 7.836760000000000392e-01 -8.489700000000000024e-02 -7.745309999999999695e-01 -3.354309999999999792e-01 -7.374110000000000387e-01 1.214640000000000025e-01 -5.472219999999999862e-01 -8.450699999999999878e-02 -3.936669999999999892e-01 -1.270890000000000075e-01 2.949950000000000072e-01 -6.470800000000000163e-02 1.006213000000000024e+00 1.593870000000000009e-01 1.571940000000000004e-01 -4.161540000000000239e-01 -1.943979999999999875e-01 2.076499999999999874e-02 -6.328899999999999804e-02 -6.696399999999999575e-02 -3.042500000000000204e-01 1.263819999999999943e-01 -6.898799999999999377e-02 -1.713870000000000116e-01 -3.609709999999999863e-01 5.572279999999999456e-01 -2.489959999999999951e-01 1.055230000000000057e-01 6.980469999999999731e-01 -6.445399999999999741e-02 -3.674600000000000088e-02 -2.875449999999999950e-01 6.902740000000000542e-01 -1.184489999999999987e-01 -1.400799999999999962e-02 -3.879440000000000111e-01 -1.979760000000000131e-01 -2.463609999999999967e-01 4.588600000000000317e-02 4.049559999999999826e-01 3.337809999999999944e-01 1.952999999999999875e-02 7.503379999999999495e-01 -1.174570000000000058e-01 -2.370500000000000038e-02 2.589080000000000270e-01 -6.639899999999999969e-02 -4.138249999999999984e-01 1.034208999999999934e+00 9.861560000000000326e-01 1.045269999999999949e-01 -2.402819999999999956e-01 -2.271851999999999983e+00 1.333409000000000066e+00 1.873350000000000015e-01 1.183560000000000029e-01 1.003578000000000081e+00 1.906839999999999924e-01 -6.132309999999999706e-01 3.040480000000000071e+00 1.451799999999999979e+00 -2.730837000000000181e+00 -2.354400000000000104e-01 3.198299000000000003e+00 1.367506000000000110e+00 5.968600000000000294e-02 -1.046785999999999994e+00 1.555485999999999924e+00 -4.629400000000000182e-01 -7.162899999999999823e-01 1.139545999999999948e+00 8.637280000000000513e-01 2.081357000000000124e+00 1.092705000000000037e+00 -9.350370000000000070e-01 2.422150000000000136e-01 1.196760000000000046e+00 4.685630000000000073e-01 5.618100000000000177e-02 3.023819999999999841e-01 -2.921902000000000221e+00 1.118708999999999953e+00 5.148850000000000371e-01 -2.238071999999999839e+00 6.133180000000000298e-01 2.040265999999999913e+00 1.855961999999999890e+00 5.980820000000000025e-01 9.204909999999999481e-01 -7.095479999999999565e-01 4.279700000000000171e-01 1.376193000000000000e+00 -2.398240000000000094e-01 1.220545999999999909e+00 1.063899999999999985e-01 -1.559990999999999906e+00 2.734690000000000176e-01 -1.245940999999999965e+00 1.137877999999999945e+00 2.020265000000000200e+00 1.428506000000000054e+00 -1.696334999999999926e+00 -8.824629999999999974e-01 -1.797469999999999901e+00 1.660643000000000091e+00 1.057630000000000070e+00 1.324715000000000087e+00 -2.067960000000000076e-01 1.482996999999999899e+00 -5.315710000000000157e-01 1.246709999999999985e+00 6.727999999999999606e-03 1.293268000000000084e+00 -3.053950000000000276e-01 1.485119000000000078e+00 1.384818000000000104e+00 1.381925999999999988e+00 -2.723190999999999917e+00 -1.501494000000000106e+00 -1.363193000000000099e+00 -7.713799999999999824e-02 -5.385400000000000187e-01 1.433241999999999905e+00 -1.016747999999999985e+00 1.840060000000000029e-01 2.163970000000000060e-01 1.035415999999999892e+00 -7.818199999999999594e-01 1.448550000000000115e-01 2.253983999999999988e+00 5.898419999999999774e-01 -3.714609999999999856e-01 -2.349162999999999890e+00 1.161852000000000107e+00 -7.430100000000000593e-02 2.314130000000000076e-01 2.094590000000000063e-01 -2.142437000000000147e+00 -6.376990000000000158e-01 -1.645591999999999944e+00 4.028870000000000395e+00 9.877460000000000129e-01 -9.572999999999999565e-02 1.455713000000000035e+00 -6.027099999999999680e-01 -1.199829000000000034e+00 -7.464190000000000547e-01 3.010155000000000136e+00 -9.570560000000000178e-01 5.960870000000000335e-01 2.949046000000000056e+00 -2.610304999999999875e+00 1.520670000000000077e-01 2.354274999999999896e+00 4.991160000000000041e-01 3.871820000000000261e-01 3.678541000000000061e+00 -6.192959999999999576e-01 -3.877349000000000157e+00 1.866452000000000000e+00 3.123472000000000026e+00 -3.561056000000000221e+00 -3.149770000000000070e-01 8.428520000000000456e-01 -1.157942999999999945e+00 1.300491999999999981e+00 9.219140000000000112e-01 2.029322000000000070e+00 -6.230259999999999687e-01 -3.527489999999999792e-01 8.617690000000000072e-01 3.521328000000000014e+00 -9.020989999999999842e-01 1.371402999999999928e+00 3.667969999999999842e-01 -1.485640000000000072e+00 -9.414709999999999468e-01 -1.332983000000000029e+00 2.663269999999999804e-01 -1.271741999999999928e+00 -6.920439999999999925e-01 8.530699999999999950e-01 5.877329999999999499e-01 1.950228999999999990e+00 2.330938999999999872e+00 -3.496009999999999951e-01 -1.082309999999999939e-01 -2.186150000000000038e+00 1.084429999999999977e-01 -1.969772000000000078e+00 -1.385679000000000105e+00 -1.163470000000000004e+00 -2.670882999999999896e+00 7.040359999999999951e-01 -1.305489999999999984e-01 3.954119999999999857e-01 -2.309889999999999999e-01 1.827999999999999981e-03 -9.273360000000000491e-01 -7.274490000000000123e-01 -2.063339999999999896e-01 -1.178785999999999889e+00 7.202410000000000201e-01 1.859299999999999842e-02 -1.935961999999999961e+00 -1.026679999999999954e-01 9.046330000000000204e-01 -1.146090000000000025e-01 -2.044680000000000109e-01 8.029500000000000526e-02 3.286350000000000104e-01 -3.428889999999999993e-01 -5.061149999999999816e-01 -1.543940000000000035e-01 -2.287009999999999876e-01 -1.751350000000000129e-01 -1.501570000000000127e-01 4.690110000000000112e-01 -8.712539999999999729e-01 9.947369999999999823e-01 -6.436579999999999524e-01 -1.722434000000000021e+00 1.785600000000000034e-02 -5.287700000000000039e-02 -8.957700000000000384e-02 4.759229999999999849e-01 -2.767899999999999805e-01 -8.070169999999999844e-01 9.293599999999999639e-01 -4.492070000000000229e-01 3.567520000000000135e-01 1.506059999999999899e-01 1.029416000000000109e+00 3.622850000000000237e-01 4.967269999999999741e-01 -1.126997999999999944e+00 -2.344110000000000082e-01 -9.023269999999999902e-01 5.819980000000000153e-01 -2.239400000000000071e-02 -8.208760000000000501e-01 3.897090000000000276e-01 2.264199999999999893e-02 -2.618673999999999946e+00 -2.641386999999999929e+00 -9.901400000000000479e-02 -2.846719999999999806e-01 1.345659999999999912e-01 1.723294000000000104e+00 1.581773000000000096e+00 9.619889999999999830e-01 1.243808000000000025e+00 2.507289999999999797e-01 1.547827000000000064e+00 -4.913910000000000222e-01 -2.948593999999999937e+00 -1.974757000000000096e+00 6.279780000000000362e-01 1.620454999999999979e+00 -5.926050000000000484e-01 1.051109999999999989e+00 9.730659999999999865e-01 3.049499999999999988e-01 3.777099999999999902e-02 2.394123000000000001e+00 5.108270000000000310e-01 9.155469999999999997e-01 2.856310000000000238e-01 1.031047000000000047e+00 1.803820999999999897e+00 1.270771000000000095e+00 1.364918999999999993e+00 -2.294719999999999871e+00 -3.965380000000000016e-01 7.055489999999999817e-01 2.162719999999999920e-01 -1.211050000000000043e-01 -2.638392000000000071e+00 -3.949179999999999913e-01 2.661890000000000089e-01 -1.470600000000000032e-02 1.023389999999999994e-01 -1.023425999999999947e+00 -8.323660000000000503e-01 -6.004690000000000305e-01 -1.225927999999999907e+00 8.011100000000000165e-02 -2.388730000000000020e-01 -1.297107999999999928e+00 -1.979720000000000091e-01 1.687390000000000001e-01 2.908080000000000109e-01 -6.970389999999999642e-01 9.895199999999999552e-01 -3.420810000000000239e-01 -3.216609999999999747e-01 -5.453280000000000349e-01 9.870769999999999822e-01 3.611739999999999950e-01 -1.634441999999999950e+00 7.596800000000000219e-01 -1.356050000000000033e-01 1.270021999999999984e+00 7.748199999999999532e-02 6.861220000000000097e-01 4.583260000000000112e-01 -2.771549999999999847e-01 2.435920000000000030e-01 -6.641540000000000221e-01 -4.112950000000000217e-01 4.019429999999999947e-01 3.143499999999999767e-02 -9.928940000000000543e-01 -1.472625999999999991e+00 -4.622820000000000262e-01 -5.823540000000000383e-01 -1.253489999999999882e-01 2.946800000000000114e-02 2.606450999999999851e+00 -5.221400000000000485e-01 2.683590000000000142e-01 2.787479999999999958e-01 -3.308729999999999727e-01 -1.767630000000000035e-01 1.174093999999999971e+00 -6.042359999999999953e-01 2.406850000000000100e-01 2.889090000000000269e-01 7.457819999999999450e-01 -1.104768999999999890e+00 -3.518939999999999846e-01 -4.803200000000000247e-01 -1.868500000000000022e-02 -1.874210000000000043e-01 -4.336849999999999872e-01 -4.909780000000000255e-01 -1.334227000000000052e+00 -4.571850000000000080e-01 -4.760769999999999724e-01 -2.758099999999999996e-01 -8.872309999999999919e-01 1.287698999999999927e+00 -8.203299999999999481e-02 -1.148214000000000068e+00 6.949720000000000342e-01 5.639049999999999896e-01 -5.209669999999999579e-01 -1.189775000000000027e+00 4.119789999999999841e-01 1.530291999999999986e+00 6.776820000000000066e-01 -1.987029999999999907e-01 3.982399999999999829e-02 8.416179999999999772e-01 6.718509999999999760e-01 -7.091720000000000246e-01 -1.199885000000000090e+00 6.644999999999999518e-02 -7.492259999999999476e-01 1.056986999999999899e+00 -3.981459999999999999e-01 -1.259149999999999991e-01 6.323689999999999589e-01 -8.885999999999999802e-03 -3.533900000000000236e-02 -5.065899999999999848e-01 1.019049999999999956e-01 6.480380000000000029e-01 -4.228439999999999976e-01 -1.031514999999999960e+00 5.958170000000000410e-01 -1.061871000000000009e+00 -5.749959999999999516e-01 4.102040000000000131e-01 -4.186663000000000245e+00 3.511940000000000062e-01 2.493989000000000011e+00 -4.073490000000000166e-01 5.535510000000000153e-01 -2.239659999999999984e-01 5.340869999999999784e-01 -1.570519999999999972e-01 -2.636519999999999975e-01 1.123170999999999919e+00 -4.263979999999999992e-01 9.481499999999999651e-02 1.159847000000000072e+00 7.572980000000000267e-01 -2.696350000000000136e-01 1.375531999999999977e+00 1.989702999999999999e+00 1.929899999999999949e-01 -3.081510000000000082e-01 1.213930000000000009e-01 -9.811199999999999921e-01 1.809334999999999916e+00 -7.438470000000000359e-01 6.704339999999999744e-01 -3.162065999999999821e+00 3.126519999999999855e-01 8.674209999999999976e-01 -9.739560000000000439e-01 -2.643200000000000063e-02 -3.611739999999999950e-01 7.746579999999999577e-01 -9.786999999999999866e-02 1.023972000000000104e+00 4.182600000000000207e-01 1.487490999999999897e+00 -2.541160000000000085e-01 1.415599999999999914e-01 3.549109999999999765e-01 -1.380619999999999903e-01 6.305999999999999973e-03 -5.229979999999999629e-01 -8.665789999999999882e-01 -3.421209999999999862e+00 2.802259999999999751e-01 -1.830367999999999995e+00 7.805670000000000108e-01 -7.217300000000000104e-02 -2.344880000000000020e-01 -6.542829999999999480e-01 9.242200000000000415e-02 -2.904570000000000207e-01 7.612769999999999815e-01 -3.621619999999999839e-01 -1.329431999999999947e+00 4.830299999999999871e-02 -5.753399999999999626e-01 -3.254199999999999871e-01 6.679500000000000437e-01 -1.839000000000000010e-02 -1.724209999999999909e-01 9.378549999999999942e-01 -7.325930000000000497e-01 4.238700000000000245e-01 -1.759090000000000098e-01 -6.536000000000000143e-03 2.917959999999999998e-01 -1.342775999999999970e+00 7.140599999999999725e-02 5.622400000000000314e-02 1.418171999999999988e+00 -1.704209999999999892e-01 -8.439020000000000410e-01 -1.428860000000000130e-01 -9.280199999999999561e-01 -4.964970000000000216e-01 6.052800000000000402e-01 1.990169999999999995e-01 -6.692620000000000235e-01 -2.503667000000000087e+00 4.528490000000000015e-01 -3.771829999999999905e-01 -4.360479999999999912e-01 -1.583129999999999926e+00 8.842330000000000467e-01 1.404327000000000103e+00 -2.361817999999999973e+00 2.365048999999999957e+00 1.113399999999999945e+00 -4.604849999999999777e-01 -4.432490000000000041e-01 4.143020000000000036e-01 -8.913900000000000157e-01 -5.574949999999999628e-01 -1.821190000000000031e-01 -2.686066999999999982e+00 2.097337000000000007e+00 7.783820000000000183e-01 -1.284658999999999995e+00 7.507629999999999582e-01 -4.412599999999999856e-02 -5.652770000000000294e-01 4.162890000000000201e-01 7.454800000000000315e-01 8.063850000000000184e-01 -1.889309999999999878e-01 -1.315784000000000065e+00 -5.604559999999999542e-01 -3.801700000000000079e-01 -1.684838999999999976e+00 1.129539999999999988e-01 8.882820000000000160e-01 -1.843990000000000073e-01 4.451479999999999881e-01 -4.060099999999999820e-02 -5.092790000000000372e-01 7.026740000000000208e-01 -1.971660000000000079e-01 -9.615700000000000636e-02 1.884820000000000106e-01 -5.287070000000000380e-01 -9.152219999999999800e-01 -1.834880000000000067e+00 -4.656170000000000031e-01 1.986910000000000065e-01 -2.214980000000000171e+00 -7.958009999999999806e-01 2.586870000000000003e-01 1.408447000000000005e+00 1.655358000000000107e+00 -2.404699999999999893e-01 4.634730000000000238e-01 -6.339019999999999655e-01 -6.968809999999999727e-01 -7.081370000000000164e-01 7.879899999999999405e-02 6.356399999999999550e-02 -1.322197999999999984e+00 5.084600000000000231e-02 1.319690000000000030e+00 -1.848629000000000078e+00 -9.756000000000000782e-03 -7.123420000000000307e-01 7.611080000000000068e-01 1.239441000000000015e+00 1.069172000000000011e+00 2.391229000000000049e+00 1.885995000000000088e+00 7.198630000000000306e-01 -5.931170000000000053e-01 -3.450579999999999758e-01 -3.260219999999999785e-01 1.141267999999999949e+00 1.712728999999999946e+00 6.782200000000000450e-01 -6.428730000000000278e-01 7.003509999999999458e-01 -1.097680000000000045e-01 3.260529999999999817e-01 3.197300000000000142e-02 -7.524020000000000152e-01 -7.872249999999999526e-01 -1.982386999999999899e+00 1.183955000000000091e+00 5.942889999999999562e-01 -6.771880000000000122e-01 1.311312999999999951e+00 6.662249999999999561e-01 1.395919999999999939e-01 -9.280720000000000081e-01 1.064891000000000032e+00 -4.228580000000000116e-01 -1.409548999999999941e+00 1.896076000000000095e+00 9.935479999999999867e-01 -1.212835000000000107e+00 -4.671520000000000117e-01 5.532499999999999918e-02 -9.909149999999999903e-01 -4.372570000000000068e-01 -1.603960000000000052e+00 1.896835999999999967e+00 -1.160104999999999942e+00 -2.795949999999999824e-01 2.976200000000000026e-02 -9.599900000000000100e-02 -3.301760000000000250e-01 6.009480000000000377e-01 -1.340673000000000004e+00 6.560629999999999518e-01 -3.109520000000000062e-01 -9.716010000000000479e-01 1.126751999999999976e+00 -3.039760000000000240e-01 1.033563000000000009e+00 -9.063879999999999715e-01 -4.556810000000000027e-01 4.821369999999999822e-01 -4.798160000000000203e-01 1.532610000000000083e-01 -3.855250000000000066e-01 5.254010000000000069e-01 3.846390000000000087e-01 -8.321399999999999630e-02 9.849599999999999467e-01 1.580789999999999917e+00 -2.086079999999999879e-01 2.161789999999999878e+00 -1.041827000000000059e+00 -1.921300000000000091e-02 2.092405999999999988e+00 3.267260999999999971e+00 7.154479999999999729e-01 -1.889745000000000008e+00 -8.099899999999999878e-01 8.406800000000000384e-02 9.544470000000000454e-01 3.270239000000000118e+00 -1.322199999999999938e-02 -1.749978000000000034e+00 2.270763000000000087e+00 -7.220729999999999649e-01 -1.698177999999999965e+00 -5.778400000000000203e-02 -6.865970000000000129e-01 -9.372639999999999860e-01 -1.630252000000000034e+00 -1.125358000000000080e+00 8.594699999999999562e-02 7.493520000000000181e-01 8.012719999999999843e-01 -1.687948000000000004e+00 -1.527093000000000034e+00 1.831710000000000005e-01 9.418410000000000393e-01 1.482680999999999916e+00 -4.732770000000000032e-01 1.746260000000000034e-01 -8.488000000000000753e-03 3.673250000000000126e-01 -4.674099999999999783e-02 -9.881600000000000383e-01 -1.729403999999999941e+00 1.010248999999999953e+00 -9.267630000000000035e-01 -3.299420000000000130e-01 -7.134610000000000118e-01 1.166560000000000041e+00 -1.802410000000000123e-01 -7.025759999999999783e-01 -9.072609999999999841e-01 -7.938849999999999518e-01 3.663500000000000090e-01 -5.224010000000000042e-01 7.484370000000000189e-01 8.692980000000000151e-01 -7.451710000000000278e-01 2.400619999999999976e-01 -1.016391000000000044e+00 -1.087266999999999983e+00 -7.600519999999999499e-01 -9.862250000000000183e-01 -2.347289999999999932e-01 -1.700690000000000035e+00 -1.414042999999999939e+00 1.475689999999999946e+00 -3.298929999999999918e-01 -4.225269999999999859e-01 -2.939820000000000211e-01 -9.404770000000000074e-01 -3.390949999999999798e-01 1.244083999999999968e+00 -1.158543000000000101e+00 7.828589999999999716e-01 1.081710000000000033e-01 9.989240000000000341e-01 -1.598764999999999992e+00 7.838800000000000212e-01 2.217979999999999952e-01 -5.001900000000000235e-01 -7.611529999999999685e-01 9.389039999999999608e-01 7.531980000000000341e-01 -1.242889999999999967e-01 -1.543868000000000018e+00 -6.866189999999999793e-01 9.856200000000000516e-01 1.313529999999999975e-01 6.249240000000000350e-01 8.139300000000000423e-01 -1.700215000000000032e+00 -4.566609999999999836e-01 -1.978688999999999920e+00 3.408510000000000151e-01 4.722919999999999896e-01 9.517799999999999871e-02 -9.994929999999999648e-01 -1.491536999999999891e+00 5.502420000000000089e-01 1.917021000000000086e+00 -1.746599999999999889e-02 -1.799690999999999930e+00 -1.026519999999999933e-01 1.193564000000000069e+00 -5.835700000000000331e-01 8.939639999999999809e-01 7.179630000000000178e-01 -2.035750000000000060e-01 -5.382449999999999735e-01 3.913179999999999992e-01 -2.366810000000000025e-01 5.243900000000000228e-01 -7.814849999999999852e-01 -1.289792999999999967e+00 -7.361900000000000388e-02 4.747700000000000253e-01 -1.753599999999999881e-01 -2.504259999999999819e-01 -8.601999999999999924e-02 8.334890000000000354e-01 5.877670000000000394e-01 1.180306000000000077e+00 -3.227999999999999967e-03 4.857239999999999891e-01 9.139249999999999874e-01 -1.343665000000000109e+00 -6.731000000000000316e-01 -1.021703000000000028e+00 8.129300000000000415e-01 -1.200742999999999894e+00 2.769559999999999800e-01 -4.824599999999999722e-02 -8.393159999999999510e-01 -5.073569999999999469e-01 -2.383529999999999927e+00 -1.537001999999999979e+00 -7.571020000000000527e-01 1.778000000000000067e-02 7.657929999999999460e-01 5.280310000000000281e-01 7.348949999999999649e-01 3.170459999999999945e-01 1.626312999999999898e+00 9.850879999999999637e-01 -9.964389999999999636e-01 4.973969999999999780e-01 -8.174120000000000275e-01 9.010329999999999728e-01 -3.576099999999999834e-01 -6.219299999999999828e-02 5.910879999999999468e-01 -1.325002000000000013e+00 4.317280000000000006e-01 -6.630600000000000382e-02 6.910870000000000068e-01 -6.871000000000000371e-03 -5.884030000000000094e-01 2.967060000000000253e-01 -1.631628000000000078e+00 -1.463632999999999962e+00 -4.909510000000000263e-01 1.522837999999999914e+00 -3.252169999999999783e-01 6.610390000000000432e-01 6.843690000000000051e-01 -2.896500000000000116e-02 -5.655810000000000004e-01 1.940199999999999980e-01 7.838699999999999835e-02 -5.656889999999999974e-01 -3.946500000000000008e-02 -1.698836999999999930e+00 2.753677999999999848