1.737319999999999975e+00 6.123599999999999710e+00 5.647310000000000052e+00 4.271639999999999660e+00 4.481419999999999959e+00 2.220080000000000098e+01 1.201359999999999983e+00 1.562299999999999933e+01 8.285840000000000316e+00 2.585500000000000020e-01 1.679749999999999943e+01 2.148849999999999838e+01 1.163250000000000028e+01 1.094120000000000026e+01 1.163030000000000008e+01 8.964230000000000587e+00 8.543659999999999144e+00 2.170039999999999836e+01 8.184129999999999683e+00 1.675710000000000122e+01 9.377269999999999328e+00 1.096419999999999995e+01 1.486720000000000041e+01 1.555310000000000059e+01 2.390299999999999869e+00 1.962469999999999937e+00 1.331799999999999962e+01 2.788889999999999869e+00 1.816419999999999924e+00 2.443680000000000163e+01 2.139359999999999928e+00 7.866279999999999717e+00 1.337650000000000006e+01 1.825970000000000093e+00 1.071959999999999980e+01 1.989809999999999945e+01 1.066450000000000031e+01 1.787120000000000042e+00 1.355129999999999946e+01 1.173770000000000024e+01 1.738949999999999996e+00 2.488230000000000075e+01 1.337379999999999924e+01 1.289910000000000068e+01 1.596429999999999971e+01 1.111139999999999972e+01 1.026200000000000045e+01 2.231210000000000093e+01 2.645480000000000054e+00 6.378989999999999938e+00 2.185270000000000046e+00 1.916130000000000111e+00 6.446349999999999802e+00 1.580460000000000065e+01 2.568099999999999827e+00 1.585360000000000014e+01 4.652149999999999785e+00 5.495940000000000047e+00 1.079039999999999999e+01 1.534609999999999985e+01 8.520450000000000301e+00 8.466549999999999798e+00 3.306329999999999991e+00 1.104100000000000037e+01 5.908389999999999809e+00 1.831530000000000058e+01 1.109270000000000067e+01 1.524549999999999983e+01 2.106580000000000119e+00 1.043420000000000059e+01 1.556179999999999986e+01 1.206600000000000072e+01 2.937539999999999818e+00 2.090990000000000126e+00 6.887039999999999829e+00 2.278030000000000221e+00 1.747540000000000093e+00 1.706840000000000046e+01 2.765900000000000025e-01 1.094369999999999976e+01 7.320170000000000066e+00 1.191179999999999906e+00 1.308919999999999995e+01 1.279030000000000022e+01 9.857820000000000249e+00 1.731510000000000105e+01 3.923589999999999911e+00 1.099060000000000059e+01 1.879219999999999891e+00 2.178450000000000131e+01 1.070979999999999954e+01 1.109319999999999951e+01 3.590629999999999988e+00 8.172900000000000276e+00 9.286559999999999704e+00 1.535299999999999976e+01 2.335980000000000167e+00 3.140530000000000044e+00 9.314780000000000726e+00 1.985370000000000079e+00 2.053939999999999877e+00 2.073799999999999955e+01 1.877010000000000067e+00 1.051679999999999993e+01 1.118469999999999942e+01 4.601999999999999841e-02 1.290010000000000012e+01 1.829919999999999902e+01 1.086710000000000065e+01 2.955080000000000151e+00 9.855100000000000193e+00 7.343250000000000277e+00 1.646340000000000003e+01 2.225219999999999843e+01 1.057690000000000019e+01 1.035200000000000031e+01 7.646980000000000111e+00 1.093030000000000079e+01 1.042510000000000048e+01 1.864649999999999963e+01 1.464820000000000011e+00 6.384089999999999598e+00 2.410429999999999851e+01 2.215829999999999966e+00 6.689600000000000435e+00 2.099599999999999866e+01 1.726049000000000078e+01 1.367099999999999937e+01 5.585700000000000109e+00 1.978150000000000075e+00 1.514649999999999963e+01 1.833520000000000039e+01 1.123000000000000043e+01 6.138020000000000032e+00 2.625440000000000218e+00 1.177860000000000085e+01 6.223189999999999777e+00 2.318059999999999832e+01 1.121250000000000036e+01 1.574280000000000079e+01 6.396530000000000271e+00 8.481360000000000454e+00 1.226999999999999957e+01 1.769979999999999976e+01 3.886789999999999967e+00 8.176099999999999923e+00 3.370600000000000263e-01 1.335050000000000026e+01 5.024259999999999948e+00 1.586050000000000004e+01 1.729209999999999914e+00 1.441569999999999929e+01 2.476379999999999981e+01 2.193690000000000140e+00 1.502120000000000033e+01 1.531830000000000069e+01 1.335270000000000046e+01 9.165729999999999933e+00 6.711799999999999988e-01 1.056390000000000029e+01 7.572259999999999991e+00 9.992309999999999803e+00 1.101789999999999914e+01 1.528919999999999924e+01 2.236880000000000024e+01 1.022059999999999924e+01 1.497899999999999920e+01 8.972110000000000696e+00 9.901600000000000401e-01 2.038660000000000139e+00 2.986749999999999794e+00 4.302990000000000315e+00 4.436230000000000118e+00 1.565479999999999983e+01 2.257569999999999855e+00 1.052549999999999919e+01 3.650389999999999802e+00 1.621809999999999974e+01 6.962410000000000210e+00 1.498889999999999922e+01 1.264160000000000039e+01 4.289139999999999731e+00 3.495999999999999996e+00 1.077100000000000080e+01 3.001889999999999947e+00 1.814440000000000097e+01 1.010389999999999944e+01 1.059720000000000084e+01 9.979999999999999288e-03 1.467849999999999966e+01 1.516249999999999964e+01 1.768540000000000134e+01 1.638300000000000090e+00 6.515010000000000190e+00 9.220110000000000028e+00 7.082270000000000287e+00 2.248390000000000111e+00 2.138510000000000133e+01 3.487359999999999793e+00 1.301960000000000051e+01 8.772990000000000066e+00 3.110739999999999839e+00 1.463390000000000057e+01 2.224419999999999931e+01 1.031039999999999957e+01 6.669959999999999667e+00 4.570540000000000269e+00 1.321170000000000044e+01 3.659860000000000113e+00 2.071610000000000085e+01 1.242580000000000062e+01 1.306729999999999947e+01 9.331139999999999546e+00 1.304049999999999976e+01 1.247339999999999982e+01 2.213540000000000063e+01 7.136379999999999946e+00 6.480150000000000077e+00 2.417190000000000083e+01 1.252480000000000038e+00 5.408079999999999998e+00 1.154829999999999934e+01 3.520350000000000090e+00 1.633800000000000097e+01 1.564969999999999972e+00 4.320800000000000196e+00 1.723010000000000019e+01 1.349370000000000047e+01 1.500500000000000078e+01 5.222430000000000128e+00 2.216140000000000043e+01 1.053619999999999912e+01 1.078459999999999930e+01 1.468340000000000067e+01 1.344630000000000081e+01 1.688919999999999888e+01 9.047300000000000342e-01 1.294529999999999959e+01 1.717810000000000059e+01 1.293399999999999928e+01 3.900310000000000166e+00 9.079330000000000567e+00 6.633350000000000080e+00 4.169069999999999609e+00 8.630979999999999208e+00 1.952039999999999864e+01 4.676599999999999646e+00 4.826699999999999879e-01 6.897990000000000066e+00 5.007509999999999906e+00 1.731109999999999971e+01 1.966440000000000055e+01 1.259389999999999965e+01 8.509270000000000778e+00 7.003280000000000172e+00 1.300370000000000026e+01 8.986019999999999897e+00 1.953330000000000055e+01 1.111500000000000021e+01 1.500869999999999926e+00 6.486469999999999736e+00 1.255030000000000001e+01 1.721325999999999823e+01 1.908699999999999974e+01 4.586380000000000123e+00 4.448479999999999990e+00 9.973150000000000404e+00 7.409720000000000084e+00 2.121999999999999886e+00 2.430349999999999966e+01 6.270970000000000155e+00 1.086890000000000001e+01 9.744189999999999685e+00 6.933239999999999625e+00 1.001040000000000063e+01 2.171869999999999834e+01 1.536829999999999963e+01 1.732229999999999936e+00 9.202479999999999549e+00 1.552350000000000030e+01 1.810480000000000089e+00 1.918949999999999889e+01 1.524740000000000073e+01 1.042590000000000039e+01 9.005760000000000431e+00 1.607659999999999911e+01 1.030100000000000016e+01 2.400970000000000049e+00 4.388989999999999725e+00 4.027199999999999669e+00 2.868489999999999984e+00 6.295709999999999695e+00 1.998029999999999973e+00 1.239289999999999914e+01 6.401159999999999961e+00 1.046449999999999925e+01 2.511319999999999908e+01 5.406030000000000335e+00 1.053800000000000026e+01 1.199130000000000074e+01 1.508179999999999943e+01 2.376069999999999904e+00 3.326130000000000031e+00 7.081499999999999462e-01 1.471440000000000081e+00 1.171700000000000053e+01 1.307830000000000048e+01 1.319969999999999999e+01 3.090899999999999981e+00 1.523310000000000031e+01 1.085590000000000011e+01 1.467600000000000016e+01 6.102409999999999890e+00 6.683930000000000149e+00 3.217830000000000190e+00 6.266060000000000407e+00 6.777720000000000411e+00 1.324890000000000079e+01 6.867020000000000124e+00 1.550109999999999921e+01 3.556150000000000144e+00 6.516149999999999665e+00 1.297180000000000000e+01 1.367859999999999943e+01 1.474760000000000026e+01 7.089859999999999829e+00 5.737519999999999953e+00 1.078299999999999947e+01 5.699489999999999945e+00 1.411890000000000001e+01 2.336399999999999866e-01 1.698789999999999978e+01 2.759599999999999831e+00 1.536849999999999916e+01 1.502630000000000088e+01 2.217810000000000059e+01 7.021580000000000155e+00 6.598980000000000068e+00 2.121760000000000090e+01 7.063830000000000275e+00 7.554979999999999585e+00 9.203419999999999490e+00 6.443819999999999659e+00 1.579739999999999966e+01 5.939600000000000435e-01 5.997429999999999595e+00 1.510100000000000087e+01 1.198520000000000074e+01 1.480090000000000039e+01 6.496459999999999901e+00 1.597769999999999913e+00 1.495960000000000001e+01 6.566209999999999880e+00 1.815800000000000125e+01 1.500140000000000029e+01 1.519459999999999944e+01 3.895410000000000039e+00 1.543169999999999931e+01 1.467600000000000016e+01 1.195309999999999917e+01 7.315080000000000027e+00 1.919720000000000093e+00 4.037029999999999674e+00 8.800779999999999603e+00 1.727619999999999933e+01 1.584869999999999912e+01 3.720860000000000056e+00 1.308699999999999974e+01 2.839129999999999932e+00 6.886619999999999742e+00 1.025820000000000043e+01 1.851040000000000063e+01 1.479649999999999999e+01 2.497040000000000148e+00 6.037729999999999819e+00 1.394199999999999884e-01 1.731609999999999872e+01 1.540010000000000012e+01 1.458970000000000056e+01 1.072760000000000069e+01 4.504730000000000345e+00 1.509639999999999915e+01 1.065569999999999951e+01 1.976450000000000173e+01 6.290060000000000429e+00 6.342459999999999987e+00 6.573190000000000310e+00 6.431720000000000326e+00 6.157639999999999780e+00 1.761990000000000123e+01 6.397569999999999979e+00 1.491830000000000034e+01 7.431479999999999642e+00 7.149540000000000006e+00 1.463119999999999976e+01 2.041769999999999996e+01 1.298590000000000089e+01 8.525760000000000005e+00 1.332530000000000037e+01 1.609860000000000113e+01 1.007620000000000005e+01 2.189329999999999998e+01 1.498039999999999949e+01 1.508489999999999931e+01 9.103590000000000515e+00 1.541670000000000051e+01 1.495979999999999954e+01 2.504836999999999847e+01 6.172229999999999883e+00 2.263300000000000090e+00 7.689890000000000114e+00 6.897129999999999761e+00 1.617259999999999920e+00 1.677390000000000114e+01 6.129839999999999733e+00 1.133980000000000032e+01 2.509949999999999903e+00 4.807820000000000427e+00 1.273070000000000057e+01 2.149820000000000064e+01 1.363579999999999970e+01 4.439669999999999561e+00 9.781560000000000699e+00 1.506000000000000050e+01 1.656339999999999923e+00 1.460629999999999917e+01 1.495989999999999931e+01 7.237350000000000172e+00 8.740840000000000387e+00 1.649869999999999948e+01 1.140530000000000044e+01 2.497749999999999915e+01 9.098440000000000083e+00 3.638059999999999850e+00 6.033319999999999794e+00 7.812319999999999709e+00 3.394540000000000113e+00 1.829919999999999902e+01 6.717069999999999652e+00 1.183159999999999989e+01 5.709150000000000169e+00 6.479940000000000033e+00 1.527030000000000065e+01 1.635510000000000019e+01 1.662689999999999912e+01 4.740429999999999922e+00 5.245099999999999874e+00 4.957400000000000140e-01 4.226049999999999862e+00 1.807140000000000057e+01 1.468640000000000079e+01 1.536589999999999989e+01 6.466260000000000119e+00 7.581299999999999706e-01 1.067220000000000013e+01 1.559609999999999985e+01 8.724009999999999820e+00 4.881260000000000154e+00 1.210389999999999944e+01 9.971230000000000260e+00 3.845450000000000035e+00 2.483340000000000103e+01 8.196270000000000167e+00 1.238560000000000016e+01 1.159759999999999991e+01 8.909000000000000696e+00 1.416140000000000043e+01 2.406380000000000052e+01 1.579209999999999958e+01 5.351020000000000110e+00 1.200370000000000026e+01 1.520449999999999946e+01 2.387620000000000076e+00 2.381889999999999930e+01 1.967219999999999969e+00 1.539209999999999923e+01 1.104299999999999926e+01 2.251119999999999788e+00 1.074729999999999919e+01 2.496559999999999846e+01 4.134310000000000151e+00 8.400719999999999743e+00 9.876569999999999183e+00 3.910250000000000004e+00 8.701340000000000074e+00 2.240759999999999863e+01 4.449430000000000440e+00 1.500700000000000089e-01 9.933609999999999829e+00 4.535849999999999937e+00 1.708849999999999980e+01 2.280460000000000065e+01 1.338840000000000074e+01 8.652950000000000585e+00 2.271049999999999969e+01 8.382920000000000371e+00 4.153500000000000192e+00 1.519979999999999976e+01 1.207499999999999962e-01 3.494320000000000093e+00 1.492980000000000018e+01 3.680800000000000183e-01 1.326559999999999917e+01 2.473289999999999988e+00 1.726679999999999993e+01 1.367670000000000030e+01 1.525009999999999977e+01 1.710999999999999943e+01 4.391049999999999898e+00 8.448130000000000805e+00 8.977750000000000341e+00 4.391099999999999781e+00 2.117259999999999920e+01 8.912150000000000460e+00 1.244710000000000072e+01 2.108109999999999928e+01 4.639300000000000423e+00 5.171900000000000386e-01 3.932179999999999787e+00 1.307890000000000086e+01 1.228800000000000031e-01 3.517990000000000173e+00 1.265639999999999965e+01 8.524399999999999977e+00 3.808429999999999982e+00 1.267880000000000074e+01 8.816879999999999384e+00 1.619069999999999965e+01 1.274109999999999943e+01 8.793400000000000105e+00 1.033859999999999957e+01 1.287770000000000081e+01 2.847799999999999776e-01 1.000140000000000029e+01 1.331830000000000069e+01 1.698170000000000002e+01 2.270070000000000121e+01 9.013590000000000657e+00 4.218149999999999622e+00 2.714949999999999974e+00 8.725630000000000663e+00 1.302299999999999969e+01 2.747749999999999915e+00 8.581979999999999720e+00 1.284430000000000049e+01 1.473300000000000054e+01 1.732340999999999909e+01 4.510559999999999903e+00 2.067530000000000090e+00 1.718880000000000052e+01 4.195079999999999920e+00 2.104250000000000043e+01 1.699970000000000070e+01 1.316590000000000060e+01 8.523619999999999308e+00 1.868499999999999883e-01 1.297339999999999982e+01 2.136980000000000146e+01 8.591350000000000264e+00 4.607709999999999972e+00 9.079420000000000712e+00 8.402200000000000557e+00 1.277560000000000073e+01 8.701299999999999812e+00 4.309190000000000076e+00 1.696770000000000067e+01 1.653719999999999857e+01 4.353259999999999685e+00 8.847839999999999705e+00 3.543439999999999923e+00 4.017509999999999692e+00 8.477209999999999468e+00 1.628389999999999915e+01 1.298530000000000051e+01 1.720339999999999847e+01 1.635190000000000055e+01 4.420860000000000234e+00 3.985450000000000159e+00 1.285239999999999938e+01 4.129439999999999777e+00 4.164880000000000138e+00 5.780000000000000415e-03 3.863309999999999800e+00 1.290740000000000087e+01 1.237540000000000084e+01 4.724319999999999631e+00 1.293790000000000084e+01 2.050000000000000173e-03 1.292849999999999966e+01 4.122889999999999944e+00 1.280000000000000071e+01 1.315199999999999925e+01 4.197960000000000136e+00 1.235600000000000032e-01 1.305250000000000021e+01 1.297230000000000061e+01 1.263299999999999912e+01 1.293699999999999939e+01 1.271739999999999959e+01 2.060000000000000199e-03 8.552020000000000621e+00 8.829629999999999868e+00 6.457340000000000302e+00 9.130340000000000344e+00 8.438620000000000232e+00 1.888469999999999871e+01 8.644170000000000798e+00 1.718290000000000006e+01 6.608990000000000364e+00 9.051750000000000185e+00 1.710630000000000095e+01 1.877459999999999951e+01 9.750999999999999945e-02 8.794349999999999667e+00 6.177550000000000097e+00 1.708950000000000102e+01 8.550840000000000884e+00 1.873930000000000007e+01 1.709090000000000131e+01 8.010000000000000453e-02 5.930539999999999701e+00 1.715020000000000167e+01 1.711390000000000100e+01 1.866379999999999839e+01 1.732658999999999949e+01 6.223900000000000432e+00 9.585200000000000387e-01 4.101000000000000201e-01 5.521300000000000097e+00 1.353139999999999965e+01 6.984399999999999498e-01 1.504059999999999953e+01 1.412320000000000020e+00 2.960400000000000253e-01 1.522339999999999982e+01 1.361379999999999946e+01 9.140829999999999345e+00 5.981300000000000061e+00 1.627499999999999947e+00 8.486330000000000595e+00 6.143629999999999924e+00 1.412940000000000040e+01 8.608359999999999346e+00 1.459750000000000014e+01 1.337299999999999933e+00 8.298849999999999838e+00 1.459409999999999918e+01 1.349600000000000044e+01 2.968399999999999928e-01 2.478040000000000020e+00 9.699690000000000367e+00 1.719800000000000040e+01 2.391680000000000028e+00 2.214590000000000103e+01 1.716580000000000084e+01 1.150140000000000029e+01 9.640010000000000190e+00 6.602799999999999780e-01 1.108329999999999949e+01 2.199869999999999948e+01 8.434979999999999478e+00 2.849829999999999863e+00 1.016740000000000066e+01 8.817719999999999558e+00 2.572060000000000013e+00 2.263350000000000151e+01 8.693640000000000256e+00 1.106739999999999924e+01 9.669959999999999667e+00 8.637560000000000571e+00 1.069730000000000025e+01 2.290840000000000032e+01 1.697889999999999944e+01 7.047570000000000334e+00 5.127469999999999750e+00 1.727044000000000068e+01 6.948310000000000208e+00 1.740729999999999933e+01 1.681840000000000046e+01 1.572630000000000017e+01 4.822829999999999728e+00 1.688690000000000069e+01 1.549009999999999998e+01 1.756370000000000076e+01 8.247450000000000614e+00 7.220740000000000158e+00 5.183989999999999654e+00 8.409340000000000259e+00 6.702309999999999768e+00 1.798809999999999931e+01 8.500719999999999388e+00 1.554299999999999926e+01 5.293090000000000295e+00 8.546929999999999694e+00 1.551709999999999923e+01 1.783149999999999835e+01 1.717579999999999885e+01 2.723230000000000040e+00 1.289169999999999927e+00 1.709759999999999991e+01 1.559660000000000046e+00 1.378810000000000002e+01 6.984700000000000353e-01 1.136880000000000024e+01 1.354910000000000059e+00 1.696740000000000137e+01 1.152379999999999960e+01 1.357859999999999978e+01 9.055780000000000385e+00 2.490670000000000162e+00 1.640830000000000011e+00 8.557019999999999627e+00 1.962259999999999893e+00 1.398220000000000063e+01 8.527990000000000848e+00 1.083539999999999992e+01 2.117830000000000101e+00 8.455360000000000653e+00 1.104630000000000045e+01 1.363530000000000086e+01 1.631369999999999987e+00 8.505860000000000198e+00 7.449049999999999727e+00 1.663370000000000015e+00 8.451750000000000540e+00 1.971180000000000021e+01 1.564429999999999987e+00 1.723359999999999914e+01 6.850570000000000270e+00 1.631510000000000016e+00 1.714349999999999952e+01 1.966049999999999898e+01 1.006129999999999924e+01 8.025829999999999131e+00 7.441880000000000273e+00 1.071279999999999966e+01 8.071569999999999467e+00 2.006210000000000093e+01 1.036870000000000047e+01 1.699429999999999907e+01 8.024169999999999803e+00 1.044660000000000011e+01 1.724459999999999837e+01 2.045599999999999952e+01 1.677000000000000046e+00 4.464579999999999771e+00 3.181880000000000042e+00 1.902849999999999930e+00 3.945030000000000037e+00 1.608840000000000003e+01 1.854850000000000110e+00 1.355889999999999951e+01 4.130609999999999893e+00 1.753100000000000103e+00 1.288010000000000055e+01 1.600319999999999965e+01 1.038630000000000031e+01 4.252460000000000129e+00 4.160020000000000273e+00 1.050689999999999991e+01 3.998409999999999798e+00 1.637969999999999970e+01 1.042440000000000033e+01 1.348559999999999981e+01 3.702020000000000088e+00 1.031559999999999988e+01 1.277679999999999971e+01 1.563390000000000057e+01 1.824100000000000055e+00 4.630630000000000024e+00 7.763779999999999681e+00 1.573339999999999961e+00 4.165589999999999904e+00 1.999180000000000135e+01 1.336980000000000057e+00 1.334980000000000011e+01 7.471470000000000056e+00 1.671480000000000077e+00 1.317420000000000080e+01 1.988340000000000174e+01 1.047339999999999982e+01 4.419529999999999959e+00 7.986570000000000391e+00 1.087620000000000076e+01 4.161730000000000373e+00 2.039890000000000114e+01 1.041920000000000002e+01 1.296669999999999945e+01 7.804829999999999934e+00 1.086100000000000065e+01 1.205979999999999919e+01 2.021620000000000061e+01 2.330849999999999866e+00 7.939000000000000057e+00 1.114039999999999964e+01 2.244159999999999933e+00 8.410030000000000783e+00 2.374139999999999873e+01 2.246259999999999923e+00 1.363999999999999935e-01 1.096149999999999913e+01 2.875210000000000043e+00 1.664179999999999993e+01 2.426999999999999957e+01 1.098760000000000048e+01 8.772470000000000212e+00 1.168299999999999983e+01 1.154149999999999920e+01 8.941900000000000404e+00 2.398529999999999873e+01 1.120299999999999940e+01 5.101299999999999724e-01 1.120860000000000056e+01 1.162330000000000041e+01 1.718039999999999878e+01 2.393929999999999936e+01 2.582539999999999836e+00 3.228300000000000058e-01 3.324699999999999989e+00 2.640270000000000117e+00 1.872000000000000053e-02 1.529320000000000057e+01 2.753769999999999829e+00 8.676439999999999486e+00 2.103549999999999809e+00 2.269740000000000091e+00 8.520789999999999864e+00 1.540959999999999930e+01 1.126730000000000054e+01 2.410700000000000065e-01 2.224060000000000148e+00 1.122209999999999930e+01 1.730519999999999925e+01 1.506520000000000081e+01 1.082809999999999917e+01 8.722110000000000696e+00 2.314239999999999853e+00 1.101249999999999929e+01 8.565989999999999327e+00 1.487090000000000067e+01 2.767850000000000144e+00 3.756089999999999929e+00 1.164150000000000063e+01 2.589809999999999945e+00 4.283190000000000275e+00 2.380180000000000007e+01 2.584389999999999965e+00 1.336260000000000048e+01 1.088199999999999967e+01 3.267650000000000166e+00 1.281269999999999953e+01 2.379250000000000043e+01 1.128459999999999930e+01 4.322879999999999612e+00 1.161299999999999955e+01 1.203149999999999942e+01 3.569739999999999913e+00 2.360989999999999966e+01 1.087780000000000058e+01 1.318180000000000085e+01 1.163000000000000078e+01 1.123629999999999995e+01 1.289049999999999940e+01 2.383859999999999957e+01 4.135950000000000237e+00 6.732549999999999812e+00 4.433670000000000222e+00 4.104779999999999873e+00 6.428889999999999993e+00 1.775949999999999918e+01 5.173079999999999679e+00 1.578640000000000043e+01 5.384579999999999700e+00 4.549940000000000317e+00 1.517600000000000016e+01 1.735290000000000177e+01 1.270889999999999986e+01 6.439680000000000071e+00 4.565529999999999866e+00 1.287679999999999936e+01 6.911950000000000038e+00 1.741949999999999932e+01 1.263569999999999993e+01 1.544480000000000075e+01 4.730879999999999974e+00 1.237739999999999974e+01 1.565460000000000029e+01 1.765409999999999968e+01 4.076349999999999696e+00 2.558159999999999989e+00 1.233449999999999935e+00 4.460169999999999746e+00 2.447519999999999918e+00 1.401120000000000054e+01 4.231900000000000439e+00 1.150849999999999973e+01 1.296699999999999964e+00 3.250290000000000123e+00 1.116150000000000020e+01 1.335999999999999943e+01 1.301660000000000039e+01 2.848930000000000184e+00 1.473500000000000032e+00 1.285459999999999958e+01 2.624089999999999812e+00 1.422390000000000043e+01 1.260249999999999915e+01 1.150520000000000032e+01 1.597490000000000077e+00 1.277839999999999954e+01 1.139780000000000015e+01 1.380030000000000001e+01 4.394470000000000098e+00 6.809300000000000352e+00 8.247759999999999536e+00 4.318520000000000358e+00 6.649250000000000327e+00 2.159290000000000020e+01 4.235979999999999634e+00 1.563770000000000060e+01 8.655849999999999156e+00 4.873709999999999987e+00 1.519589999999999996e+01 2.125919999999999987e+01 1.268580000000000041e+01 7.471540000000000070e+00 8.909209999999999852e+00 1.322869999999999990e+01 6.664399999999999658e+00 2.139280000000000115e+01 1.277430000000000021e+01 1.565579999999999927e+01 8.849270000000000636e+00 1.319420000000000037e+01 1.518720000000000070e+01 2.185020000000000095e+01 4.818380000000000329e+00 5.844430000000000014e+00 1.154560000000000031e+00 4.248899999999999899e+00 5.774910000000000210e+00 1.386229999999999940e+01 4.703649999999999665e+00 1.470909999999999940e+01 1.392840000000000078e+00 4.423910000000000231e+00 1.455889999999999951e+01 1.360560000000000080e+01 1.233539999999999992e+01 6.096460000000000434e+00 5.113299999999999512e-01 1.333510000000000062e+01 6.168050000000000033e+00 1.366339999999999932e+01 1.322850000000000037e+01 1.458980000000000032e+01 9.374900000000000455e-01 1.409660000000000046e+01 1.426239999999999952e+01 1.371219999999999928e+01 5.153260000000000396e+00 2.104220000000000201e+00 5.436300000000000132e+00 4.144079999999999764e+00 1.274559999999999915e+00 1.783330000000000126e+01 4.252779999999999561e+00 1.050029999999999930e+01 4.786640000000000228e+00 4.183760000000000367e+00 1.011260000000000048e+01 1.751310000000000144e+01 1.322039999999999971e+01 1.961160000000000014e+00 4.895489999999999675e+00 1.321419999999999995e+01 1.470639999999999947e+00 1.755890000000000128e+01 1.273789999999999978e+01 1.007770000000000010e+01 5.426339999999999719e+00 1.278899999999999970e+01 1.063359999999999950e+01 1.749530000000000030e+01 4.278400000000000425e+00 2.026359999999999939e+00 8.828039999999999665e+00 3.791819999999999968e+00 1.569569999999999910e+00 2.188779999999999859e+01 3.944789999999999797e+00 1.052510000000000012e+01 8.948819999999999553e+00 4.287160000000000082e+00 1.031090000000000018e+01 2.110170000000000101e+01 1.302779999999999916e+01 2.043330000000000091e+00 8.724009999999999820e+00 1.318619999999999948e+01 1.337809999999999944e+00 2.146569999999999823e+01 1.240370000000000061e+01 1.065639999999999965e+01 9.234690000000000509e+00 1.330480000000000018e+01 1.034759999999999991e+01 2.123460000000000036e+01 6.131929999999999659e+00 4.272230000000000416e+00 1.173189999999999955e+01 5.880749999999999922e+00 3.945600000000000218e+00 2.401160000000000139e+01 5.676110000000000433e+00 1.270470000000000077e+01 1.139080000000000048e+01 6.514179999999999637e+00 1.259299999999999997e+01 2.412320000000000064e+01 1.455359999999999943e+01 3.692460000000000075e+00 1.172470000000000034e+01 1.516549999999999976e+01 4.502489999999999881e+00 2.466629999999999967e+01 1.432060000000000066e+01 1.274840000000000018e+01 1.083230000000000004e+01 1.463470000000000049e+01 1.262850000000000072e+01 2.399889999999999901e+01 6.031659999999999577e+00 2.593400000000000150e-01 2.403659999999999908e+00 5.815719999999999779e+00 4.773999999999999772e-02 1.536400000000000077e+01 6.044810000000000016e+00 8.673249999999999460e+00 2.251650000000000151e+00 5.656570000000000320e+00 8.492010000000000502e+00 1.500350000000000072e+01 1.503589999999999982e+01 3.629000000000000281e-02 2.443049999999999944e+00 1.467319999999999958e+01 1.662419999999999831e+01 1.517329999999999934e+01 1.466269999999999918e+01 8.550810000000000244e+00 2.796219999999999928e+00 1.479049999999999976e+01 8.787029999999999674e+00 1.521010000000000062e+01 6.056869999999999976e+00 8.662760000000000460e+00 1.099639999999999951e+01 5.798210000000000086e+00 8.368819999999999482e+00 2.391009999999999991e+01 6.215889999999999915e+00 1.729670000000000130e+01 1.146540000000000070e+01 6.455070000000000086e+00 1.712269999999999825e+01 2.429179999999999851e+01 1.462480000000000047e+01 9.015040000000000830e+00 1.132169999999999987e+01 1.543290000000000006e+01 8.356540000000000745e+00 2.393329999999999913e+01 1.492970000000000041e+01 1.714079999999999870e+01 1.096349999999999980e+01 1.473780000000000001e+01 6.121000000000000052e-02 2.405659999999999954e+01 7.253090000000000259e+00 4.399449999999999861e+00 3.641449999999999854e+00 6.632380000000000386e+00 3.949780000000000069e+00 1.635150000000000148e+01 6.749929999999999986e+00 1.310139999999999993e+01 3.610009999999999941e+00 7.018220000000000347e+00 1.284539999999999971e+01 1.603869999999999862e+01 1.566440000000000055e+01 4.837930000000000064e+00 3.389590000000000103e+00 1.554129999999999967e+01 3.682589999999999808e+00 1.602749999999999986e+01 1.565809999999999924e+01 1.289520000000000088e+01 3.221210000000000129e+00 1.555450000000000088e+01 1.306670000000000087e+01 1.676709999999999923e+01 6.658249999999999780e+00 8.903130000000000877e+00 7.158710000000000129e+00 7.364279999999999937e+00 8.801170000000000826e+00 2.005480000000000018e+01 6.877559999999999896e+00 4.146999999999999992e-02 7.505989999999999718e+00 7.368330000000000268e+00 4.080300000000000038e-01 1.992970000000000041e+01 1.558409999999999940e+01 9.079589999999999606e+00 7.271779999999999688e+00 1.560190000000000055e+01 8.277990000000000848e+00 2.010719999999999885e+01 1.559329999999999927e+01 1.318799999999999972e-01 7.212830000000000297e+00 1.544940000000000069e+01 1.683070000000000022e+01 1.994630000000000081e+01 7.194709999999999717e+00 4.477619999999999933e+00 7.294489999999999696e+00 6.901729999999999698e+00 4.319009999999999572e+00 1.997939999999999827e+01 6.543929999999999580e+00 1.275239999999999974e+01 7.839070000000000427e+00 6.963799999999999990e+00 1.211079999999999934e+01 1.977100000000000080e+01 1.518340000000000067e+01 4.532460000000000377e+00 7.205470000000000041e+00 1.563519999999999932e+01 4.170010000000000439e+00 1.954949999999999832e+01 1.554410000000000025e+01 1.294020000000000081e+01 7.194779999999999731e+00 1.565019999999999989e+01 1.319219999999999970e+01 2.039499999999999957e+01 9.026650000000000063e+00 1.543849999999999945e+00 5.488100000000000200e+00 9.257250000000000867e+00 1.476909999999999945e+00 1.778790000000000049e+01 9.037720000000000198e+00 1.061200000000000010e+01 5.504629999999999690e+00 9.092460000000000875e+00 9.958059999999999690e+00 1.735679999999999978e+01 1.683920000000000172e+01 1.852999999999999980e+00 4.890539999999999665e+00 1.696209999999999951e+01 1.340330000000000021e+00 1.754360000000000142e+01 2.493799999999999906e-01 1.044130000000000003e+01 4.953940000000000232e+00 1.677590000000000003e+01 1.035699999999999932e+01 1.804949999999999832e+01 8.513149999999999551e+00 6.329200000000000159e+00 1.017130000000000045e+01 9.348169999999999646e+00 6.218020000000000103e+00 2.270129999999999981e+01 8.564840000000000231e+00 1.436589999999999989e+01 1.017459999999999987e+01 9.072020000000000195e+00 1.469960000000000022e+01 2.201239999999999952e+01 1.660259999999999891e+01 6.092480000000000118e+00 9.957100000000000506e+00 9.542000000000000481e-02 5.951529999999999987e+00 2.221440000000000126e+01 1.726810000000000045e+01 1.463620000000000054e+01 1.006189999999999962e+01 1.724220000000000041e+01 1.441280000000000072e+01 2.277909999999999968e+01