1.173526592465927791e+02 2.638819966370435921e+00 -1.506603172350450315e+01 2.638819966370435921e+00 9.257572485270441121e+01 -1.348837959582166590e+01 -1.506603172350450315e+01 -1.348837959582166590e+01 1.169804195899447734e+02
1.332697060546080081e+02 1.131364696159187844e+01 1.604999290519162969e+01 1.131364696159187844e+01 1.143600538976866545e+02 4.687950551284820189e-01 1.604999290519162969e+01 4.687950551284820189e-01 9.845181053165869400e+01
1.248537567464875195e+02 1.760137593860235583e+01 -1.115890410698178492e+01 1.760137593860235583e+01 1.717144313673844067e+02 -6.309855275053293688e+00 -1.115890410698178492e+01 -6.309855275053293688e+00 1.234098510288890509e+02
1.283802649594439060e+02 5.327588873641787792e+00 -1.361657089278037702e+01 5.327588873641787792e+00 1.630610715889874882e+02 -4.177727533863401455e+00 -1.361657089278037702e+01 -4.177727533863401455e+00 1.094889729221750940e+02
1.342916114835770713e+02 -1.043278491333831104e+00 1.248087979919537105e+01 -1.043278491333831104e+00 1.309799166705555535e+02 2.913233139331263821e+00 1.248087979919537105e+01 2.913233139331263821e+00 1.424340420861043981e+02
1.264236882084703240e+02 2.869733778923680312e+00 -2.005221652606859095e+01 2.869733778923680312e+00 1.590425121693427570e+02 2.095614641696254310e+01 -2.005221652606859095e+01 2.095614641696254310e+01 1.398495021657836617e+02
1.449092216014177268e+02 1.168263828937828741e+01 6.177756568014680205e+00 1.168263828937828741e+01 1.094028215914977409e+02 7.693784601786773258e+00 6.177756568014680205e+00 7.693784601786773258e+00 1.276642202929943863e+02
1.230257479103117078e+02 2.087168986656080705e+01 1.467580856504296527e+01 2.087168986656080705e+01 9.227711398358611916e+01 3.722490720939880315e+00 1.467580856504296527e+01 3.722490720939880315e+00 1.079882920653433445e+02
1.315588724435993413e+02 -1.405203526915499879e+01 -6.311173437489888016e+00 -1.405203526915499879e+01 1.273119884590446702e+02 -8.527381111242490874e+00 -6.311173437489888016e+00 -8.527381111242490874e+00 1.107317647137333267e+02
9.924016582320133750e+01 2.473249348888324484e+00 -1.008563742021545195e+01 2.473249348888324484e+00 1.048482408324582593e+02 -1.003107491078645985e+01 -1.008563742021545195e+01 -1.003107491078645985e+01 1.223833320313919018e+02
1.252617750978430848e+02 6.489125366430001929e-01 9.185473707711766522e+00 6.489125366430001929e-01 1.192081141077876936e+02 3.868665519712117806e+00 9.185473707711766522e+00 3.868665519712117806e+00 9.534913861929699408e+01
8.452782532777277424e+01 5.481296029194559161e+00 -1.058460897969594861e+01 5.481296029194559161e+00 1.206628475882581881e+02 9.856371310707949362e+00 -1.058460897969594861e+01 9.856371310707949362e+00 1.087022182564483188e+02
1.295797927767439433e+02 -3.692125907668353246e+00 -7.143216398359618857e+00 -3.692125907668353246e+00 1.409342086194104411e+02 8.693799118862413522e+00 -7.143216398359618857e+00 8.693799118862413522e+00 1.239512391724899203e+02
1.074411134224674385e+02 2.479604774921899679e+00 6.604794120241076705e+00 2.479604774921899679e+00 1.192996322426711799e+02 3.951050671999207786e+00 6.604794120241076705e+00 3.951050671999207786e+00 1.168923380928424223e+02
1.427019586013419996e+02 -4.298151087892188471e+00 -9.133735832075474903e+00 -4.298151087892188471e+00 1.194108286596438120e+02 -7.189822855939173252e+00 -9.133735832075474903e+00 -7.189822855939173252e+00 1.357662115550562305e+02
1.397530879989928394e+02 -8.845811494139564635e-02 1.891252386794392493e+01 -8.845811494139564635e-02 1.090524728467431572e+02 -3.417853966397160548e+00 1.891252386794392493e+01 -3.417853966397160548e+00 1.334980776967477993e+02
1.184585504536648131e+02 5.133818995462552159e+00 5.478377240942102766e-01 5.133818995462552159e+00 1.040477396156070142e+02 2.330351125315619143e+01 5.478377240942102766e-01 2.330351125315619143e+01 1.388265139605274214e+02
1.432523855730795219e+02 -9.628376286407164031e+00 -1.588277458466377645e+01 -9.628376286407164031e+00 1.255617041293979668e+02 8.701472707332582601e+00 -1.588277458466377645e+01 8.701472707332582601e+00 8.398582518018346832e+01
1.278501282737839375e+02 -2.948399830050381532e+00 1.821187345566463378e+01 -2.948399830050381532e+00 1.498286979692441889e+02 2.276306465415288116e+01 1.821187345566463378e+01 2.276306465415288116e+01 1.245269466166721202e+02
1.222893658805547545e+02 -3.942341384471715671e+00 2.399149789059821014e+00 -3.942341384471715671e+00 1.119899036822318834e+02 3.700317345667183844e+00 2.399149789059821014e+00 3.700317345667183844e+00 1.329147437413253385e+02
1.688040699390757027e+02 -2.583739607412781858e+00 1.201053119548090464e+01 -2.583739607412781858e+00 1.441018941862341194e+02 -1.054012099746092090e+01 1.201053119548090464e+01 -1.054012099746092090e+01 1.172331772371615699e+02
1.497581292016565726e+02 1.804051233890748307e+01 -2.239364963129756703e+01 1.804051233890748307e+01 9.923898889245437260e+01 -2.287830971289505300e+01 -2.239364963129756703e+01 -2.287830971289505300e+01 1.208718704889180060e+02
1.356524258904402700e+02 2.557470513140669421e+00 6.854585901975533524e+00 2.557470513140669421e+00 1.450713085038888437e+02 -1.195304989779945437e+01 6.854585901975533524e+00 -1.195304989779945437e+01 1.465407300800813744e+02
1.409495087191208995e+02 1.141679317225531598e+01 -1.193831472484753409e+00 1.141679317225531598e+01 1.045138983458623017e+02 -2.211532904825683943e+01 -1.193831472484753409e+00 -2.211532904825683943e+01 1.374678180290086971e+02
1.075770724623560568e+02 -4.851261461732772062e+00 8.314027105433867249e+00 -4.851261461732772062e+00 1.240928004027340847e+02 -1.073229024982429358e+01 8.314027105433867249e+00 -1.073229024982429358e+01 1.170073948426650645e+02
1.397107655693322101e+02 5.978572808399434280e+00 -8.440288235967566166e+00 5.978572808399434280e+00 1.481839137117548546e+02 8.003599851616109984e-01 -8.440288235967566166e+00 8.003599851616109984e-01 1.133999137943179534e+02
1.189638303619489932e+02 1.224252778432135003e+01 4.759178400090744887e+00 1.224252778432135003e+01 1.499746373818670691e+02 7.647131066977340907e+00 4.759178400090744887e+00 7.647131066977340907e+00 1.322785891339793807e+02
1.217863927565345818e+02 5.295952975163545240e+00 4.998377805102575344e+00 5.295952975163545240e+00 1.180982684134058900e+02 -7.743215693159027246e+00 4.998377805102575344e+00 -7.743215693159027246e+00 1.092282592231088643e+02
1.248313950622953286e+02 8.253956560109108054e+00 1.746899476818446928e+01 8.253956560109108054e+00 1.166304945402591073e+02 2.749846905315506618e+01 1.746899476818446928e+01 2.749846905315506618e+01 1.234461475731252449e+02
1.366609613861238870e+02 2.102186622987270326e+00 -1.088562078753803597e+01 2.102186622987270326e+00 1.514017365283989704e+02 4.664929785874313062e+00 -1.088562078753803597e+01 4.664929785874313062e+00 1.428888081267291170e+02
1.266572854231266376e+02 -5.624316653564948032e-01 -1.811197557386280010e+01 -5.624316653564948032e-01 1.300909102615330255e+02 1.826427041251922034e+01 -1.811197557386280010e+01 1.826427041251922034e+01 1.438080851945634322e+02
8.933921237579859564e+01 -6.148003758731571011e+00 -2.342482927455266761e+01 -6.148003758731571011e+00 8.708021150008657685e+01 -5.444010863130915867e-01 -2.342482927455266761e+01 -5.444010863130915867e-01 8.999518649692333838e+01
1.068100902331782009e+02 -1.152219908995291142e+01 -7.802674234495366790e+00 -1.152219908995291142e+01 1.347586176039701797e+02 -5.430876315994860093e+00 -7.802674234495366790e+00 -5.430876315994860093e+00 1.417114536847017803e+02
1.213466914294709227e+02 -4.436040294205837675e+00 8.236161367215096618e+00 -4.436040294205837675e+00 1.374989360779582910e+02 3.863957796724283966e+00 8.236161367215096618e+00 3.863957796724283966e+00 1.172071906062687248e+02
1.209486534508495765e+02 4.023879146620995328e+00 -4.857805196685860416e+00 4.023879146620995328e+00 1.266453748839674205e+02 -8.838844064117569843e+00 -4.857805196685860416e+00 -8.838844064117569843e+00 1.187143681208236927e+02
1.118612416129743963e+02 -6.717920703638720348e-02 -1.734188624751296004e+01 -6.717920703638720348e-02 1.160905657907844528e+02 -1.924291186723009162e+01 -1.734188624751296004e+01 -1.924291186723009162e+01 1.095751242528524614e+02
1.459254306855715129e+02 -1.388316924558140286e+01 6.070561715581706430e+00 -1.388316924558140286e+01 1.534955434044678952e+02 -9.230809080084604545e+00 6.070561715581706430e+00 -9.230809080084604545e+00 1.329566424759170502e+02
1.162550536319793650e+02 -4.250932626324216201e+00 -1.102379245723095558e+01 -4.250932626324216201e+00 1.013796376122522389e+02 4.586263734747611842e+00 -1.102379245723095558e+01 4.586263734747611842e+00 8.050780651400181398e+01
1.296666031886395842e+02 -1.264847473756225149e+01 7.632348816795543556e+00 -1.264847473756225149e+01 1.134964691927984290e+02 2.319777579484944674e+00 7.632348816795543556e+00 2.319777579484944674e+00 1.098092393170374237e+02
8.999076123731477139e+01 3.469591842033453027e-02 9.534645521719392391e+00 3.469591842033453027e-02 1.187637521349660688e+02 -8.227687465836995839e-01 9.534645521719392391e+00 -8.227687465836995839e-01 9.176736173846347810e+01
1.294786708869652614e+02 7.846314826592585945e+00 6.804354497695348059e+00 7.846314826592585945e+00 1.342605405118573572e+02 1.126285063055315305e+01 6.804354497695348059e+00 1.126285063055315305e+01 1.132177719919186814e+02
1.665202122859879523e+02 1.200045666828694069e+00 -5.753590726810861256e+00 1.200045666828694069e+00 1.084230973604996677e+02 -8.819307013718059807e+00 -5.753590726810861256e+00 -8.819307013718059807e+00 1.131874542558770145e+02
9.060601355459476736e+01 2.119228580203228240e+00 2.947269976533301694e+00 2.119228580203228240e+00 9.837418017958930250e+01 -1.481849964880420645e+00 2.947269976533301694e+00 -1.481849964880420645e+00 1.230495219114002481e+02
1.282985388883751057e+02 -1.374014862121101288e+01 1.758089734360527956e+01 -1.374014862121101288e+01 1.185120772640364777e+02 1.819855059960906019e+01 1.758089734360527956e+01 1.819855059960906019e+01 1.273563352095900569e+02
8.773882194608451357e+01 -3.197956225635447680e-01 1.051479344778637426e+01 -3.197956225635447680e-01 1.418648783768752821e+02 8.943967518435897546e+00 1.051479344778637426e+01 8.943967518435897546e+00 9.966447289609477878e+01
1.051243487856947070e+02 3.953263301803489949e+00 -4.648593987106530712e+00 3.953263301803489949e+00 1.092446420991065281e+02 -5.024081972616147862e-01 -4.648593987106530712e+00 -5.024081972616147862e-01 1.268340604213197906e+02
1.327326019389260523e+02 -2.599228016042754774e+00 1.960578315513231695e+00 -2.599228016042754774e+00 1.343321449785023276e+02 2.042789282049772126e+01 1.960578315513231695e+00 2.042789282049772126e+01 1.232103377286646548e+02
1.081984448195202475e+02 -3.525754977278309443e+00 -4.020395431609998654e-02 -3.525754977278309443e+00 1.527576078261249677e+02 2.490277182935318478e+01 -4.020395431609998654e-02 2.490277182935318478e+01 1.312305558424278047e+02
1.638726830320900376e+02 1.692534691754943310e+01 1.856255174102836580e-01 1.692534691754943310e+01 1.085983658873367119e+02 -1.597857674746619239e+01 1.856255174102836580e-01 -1.597857674746619239e+01 1.457700287497431191e+02
9.427163498184161483e+01 -2.232873013129534456e+00 8.728730423432139673e+00 -2.232873013129534456e+00 1.663690002236187127e+02 -9.712173755590603363e+00 8.728730423432139673e+00 -9.712173755590603363e+00 1.280901279917036959e+02
1.221368356557489392e+02 4.609331577387997037e+00 2.322978831116671472e+00 4.609331577387997037e+00 1.141985319219740802e+02 -1.932807457608000945e+01 2.322978831116671472e+00 -1.932807457608000945e+01 1.307046561074569127e+02
1.285339721149966579e+02 -9.401887733462482188e+00 8.087067780190402289e+00 -9.401887733462482188e+00 1.002118398478902037e+02 -6.907029936060002484e+00 8.087067780190402289e+00 -6.907029936060002484e+00 1.260905226526213312e+02
1.224655288747594852e+02 9.064014454625656469e+00 -1.207987595509169587e+01 9.064014454625656469e+00 1.281302848687899143e+02 -5.056565261232201181e+00 -1.207987595509169587e+01 -5.056565261232201181e+00 1.210344752409177858e+02
9.848010394681557500e+01 6.732655876590640354e+00 2.059106249925604004e+01 6.732655876590640354e+00 1.002778892014095078e+02 -1.859253993646086656e+01 2.059106249925604004e+01 -1.859253993646086656e+01 9.813182660017564274e+01
1.031103848914994359e+02 1.289595973503267246e+01 -1.087469887020626125e+01 1.289595973503267246e+01 1.555947641619728472e+02 1.070446760696619570e+01 -1.087469887020626125e+01 1.070446760696619570e+01 1.295272075109698164e+02
1.224462272105093632e+02 -3.026359722728908075e+00 -6.220126074905183877e+00 -3.026359722728908075e+00 1.084601000631840435e+02 1.225170784414762615e+01 -6.220126074905183877e+00 1.225170784414762615e+01 1.067063790957562190e+02
9.762221558674262667e+01 7.618178570602164079e+00 1.556768668508806464e+01 7.618178570602164079e+00 1.215157457619640411e+02 -1.093100323714075373e+01 1.556768668508806464e+01 -1.093100323714075373e+01 1.288378085566314439e+02
1.180082096726486327e+02 5.682974881993355432e+00 -1.026655521463790244e+01 5.682974881993355432e+00 1.380820817244612613e+02 -1.092318841698094900e+01 -1.026655521463790244e+01 -1.092318841698094900e+01 1.374598619771592780e+02
1.457934732102225439e+02 -5.956964359885278171e+00 5.648137731883386081e+00 -5.956964359885278171e+00 1.493332572020045745e+02 7.291933367545286870e+00 5.648137731883386081e+00 7.291933367545286870e+00 1.275653110330199951e+02
1.337231539327961229e+02 7.312035344703337048e-01 1.870811453581218586e+01 7.312035344703337048e-01 1.194859639185296345e+02 3.159823669433994286e+00 1.870811453581218586e+01 3.159823669433994286e+00 1.208618430389539355e+02
1.027294830245538151e+02 1.525867174816666116e+00 -1.974178927225083413e+01 1.525867174816666116e+00 1.021609313193131356e+02 -2.500215186162635561e+01 -1.974178927225083413e+01 -2.500215186162635561e+01 1.021609783965430012e+02
1.294855441625274750e+02 1.054624103734510321e+00 -1.271433578216204729e+01 1.054624103734510321e+00 1.227915386916669576e+02 9.018537850563182801e+00 -1.271433578216204729e+01 9.018537850563182801e+00 1.093811189885238377e+02
1.144847614796343720e+02 -5.192383069431204312e+00 -1.001125539700768030e+01 -5.192383069431204312e+00 1.270776850859401748e+02 -1.745115249806057989e+01 -1.001125539700768030e+01 -1.745115249806057989e+01 1.145300968520072189e+02
1.386012964927894302e+02 1.055349093074636890e+01 -8.140265049952922993e+00 1.055349093074636890e+01 1.376279747650548302e+02 -5.142104587921140002e+00 -8.140265049952922993e+00 -5.142104587921140002e+00 1.331139275009405765e+02
1.525851168558507140e+02 5.656988251100513843e+00 -2.225340656349000579e+00 5.656988251100513843e+00 1.323284439204205114e+02 -2.879196302129225948e+00 -2.225340656349000579e+00 -2.879196302129225948e+00 1.270352685018198002e+02
1.476567899688071179e+02 2.229812993187442416e+01 -4.853897786605958942e+00 2.229812993187442416e+01 1.336907177214099818e+02 -3.457398839494963738e+00 -4.853897786605958942e+00 -3.457398839494963738e+00 1.210525058199611834e+02
1.123677455292354210e+02 -7.297064785602024983e+00 6.590718028507454029e+00 -7.297064785602024983e+00 1.205511333217568932e+02 1.308252679704052213e+01 6.590718028507454029e+00 1.308252679704052213e+01 9.729196881914610628e+01
7.423170561277127888e+01 -1.236398703740746186e+01 -5.803539667711777206e+00 -1.236398703740746186e+01 1.282892646740890825e+02 2.372127459109655945e+00 -5.803539667711777206e+00 2.372127459109655945e+00 1.031305810231172444e+02
1.627770075839015931e+02 -1.418719399613570520e+00 1.444950832101779881e+01 -1.418719399613570520e+00 1.494828686385579601e+02 -2.235697646922234494e-01 1.444950832101779881e+01 -2.235697646922234494e-01 1.332989410143624411e+02
9.002418607052840116e+01 -1.907155075047294801e+01 -1.550822814375172598e+01 -1.907155075047294801e+01 1.198687488746704020e+02 1.872214355031593058e+01 -1.550822814375172598e+01 1.872214355031593058e+01 1.073648953872943963e+02
1.113728624302165144e+02 8.507232056854562074e+00 6.000463720292861236e-01 8.507232056854562074e+00 1.123640735053049156e+02 1.318308376006065075e+01 6.000463720292861236e-01 1.318308376006065075e+01 1.140903013704837718e+02
1.330133705379204514e+02 -4.550861657879102573e+00 5.444057940360793602e+00 -4.550861657879102573e+00 1.144857501014618038e+02 8.370943476356776713e+00 5.444057940360793602e+00 8.370943476356776713e+00 9.765855920820871461e+01
1.240118746445732256e+02 -1.927247636759369165e+00 -3.516245376842884962e+00 -1.927247636759369165e+00 1.212187825958914686e+02 9.963472008681167225e+00 -3.516245376842884962e+00 9.963472008681167225e+00 1.162804282588837737e+02
1.200265988264524708e+02 -8.006189099259419351e+00 -9.551028397717055141e-01 -8.006189099259419351e+00 9.774343945367935760e+01 6.470153242789033143e+00 -9.551028397717055141e-01 6.470153242789033143e+00 1.009349460988214702e+02
1.247056047040604057e+02 3.669999609625534287e+00 8.461755452792088406e+00 3.669999609625534287e+00 8.506761284555778957e+01 -1.861537239295185842e+01 8.461755452792088406e+00 -1.861537239295185842e+01 1.337591680136530670e+02
1.169756177124971828e+02 -2.531954654546610950e+00 -1.617625403572533216e+01 -2.531954654546610950e+00 1.247342747370563103e+02 -2.538178264336526624e+01 -1.617625403572533216e+01 -2.538178264336526624e+01 1.336320594929815684e+02
1.208174492111786549e+02 6.971525740993323339e+00 1.016011359788298307e+01 6.971525740993323339e+00 1.036883991199456574e+02 -1.092064624656751981e+01 1.016011359788298307e+01 -1.092064624656751981e+01 1.044672448110528649e+02
1.414937214965144676e+02 -1.556231988088193408e+00 -1.119637758196494026e+01 -1.556231988088193408e+00 1.290975336338702277e+02 -3.178654561385329202e+00 -1.119637758196494026e+01 -3.178654561385329202e+00 1.069291956247704007e+02
1.127894162772556825e+02 9.270118567033016177e+00 -9.719047031152841853e+00 9.270118567033016177e+00 1.654947289875481147e+02 1.116558907362450803e+01 -9.719047031152841853e+00 1.116558907362450803e+01 1.340996776173630849e+02
1.370992033190613313e+02 5.752837491132807735e+00 -6.888528584717815484e+00 5.752837491132807735e+00 1.184429678905750762e+02 1.242645852145601459e+01 -6.888528584717815484e+00 1.242645852145601459e+01 1.073409330772863370e+02
1.108503522557968495e+02 9.363613945571394481e+00 -5.578651740582960539e-01 9.363613945571394481e+00 1.127541083548469345e+02 1.146377624767389580e+00 -5.578651740582960539e-01 1.146377624767389580e+00 9.849248525827357525e+01
1.210132904874725313e+02 -1.070296113561008688e+01 2.915539923595302341e+00 -1.070296113561008688e+01 1.006325690513128990e+02 1.740120355715966483e+01 2.915539923595302341e+00 1.740120355715966483e+01 1.125795930636879376e+02
1.097589137582974814e+02 3.501321894971451965e+00 1.716021521741245692e+01 3.501321894971451965e+00 9.261503433965280863e+01 -4.232996201740569120e+00 1.716021521741245692e+01 -4.232996201740569120e+00 9.084775513002003322e+01
1.102607570288005547e+02 7.022133763112536009e+00 1.456400014408191623e+01 7.022133763112536009e+00 8.781334520098192797e+01 -3.736660967133260236e+00 1.456400014408191623e+01 -3.736660967133260236e+00 7.989071818475656528e+01
1.179629684547355595e+02 -4.811810743094725673e+00 4.031265563988906564e+01 -4.811810743094725673e+00 1.031572267352283774e+02 4.251591707542512033e+00 4.031265563988906564e+01 4.251591707542512033e+00 1.225621313504698264e+02
1.188217983594060598e+02 -3.982262875408545399e-01 1.539844404367544328e+01 -3.982262875408545399e-01 8.719865781046047459e+01 1.952970635164892599e+01 1.539844404367544328e+01 1.952970635164892599e+01 1.072229575392112224e+02
1.162788276330679196e+02 -1.024409937598593423e+01 -4.634941590441812309e+00 -1.024409937598593423e+01 1.385658944159209227e+02 1.178070015921486124e+01 -4.634941590441812309e+00 1.178070015921486124e+01 1.231298827428025788e+02
1.338355272805157483e+02 2.902358299229367944e+00 -1.775847265470636538e+00 2.902358299229367944e+00 1.290015431621483231e+02 -1.641889007851828097e+01 -1.775847265470636538e+00 -1.641889007851828097e+01 1.090177769283228173e+02
1.223174239095622227e+02 -4.494886831553759343e+00 5.208860099888621420e+00 -4.494886831553759343e+00 1.326325157482046961e+02 -1.459963760709981706e+01 5.208860099888621420e+00 -1.459963760709981706e+01 1.647833449668565606e+02
1.020115552689091629e+02 -2.720451882979472824e+00 -1.868344606735593416e+01 -2.720451882979472824e+00 1.184838309261094764e+02 2.350707319515012550e+00 -1.868344606735593416e+01 2.350707319515012550e+00 9.193528621743949714e+01
1.427309581749470624e+02 7.975683054298256636e+00 -2.903864770585474542e+00 7.975683054298256636e+00 1.082409555581003815e+02 -8.985772098567860411e+00 -2.903864770585474542e+00 -8.985772098567860411e+00 1.258551835804595243e+02
1.435269870549598465e+02 -1.444611876046655974e+00 -4.637295451935729673e+00 -1.444611876046655974e+00 1.258084358911903280e+02 -2.437762533006033294e+01 -4.637295451935729673e+00 -2.437762533006033294e+01 1.326913152083227487e+02
9.590874565086079429e+01 -3.380662954793274277e+00 2.535570185801266874e+01 -3.380662954793274277e+00 1.364253869278126956e+02 -2.354991347433941229e+00 2.535570185801266874e+01 -2.354991347433941229e+00 1.134639388269525000e+02
9.199818139655695859e+01 7.338539825124840377e+00 -1.018803039520083509e+01 7.338539825124840377e+00 1.097319385055772045e+02 2.168414869980115256e+01 -1.018803039520083509e+01 2.168414869980115256e+01 1.194570584993843454e+02
1.417012379258181909e+02 1.333377797290120803e+01 -9.984233067057514788e+00 1.333377797290120803e+01 1.304260530610369244e+02 -3.501646727857612973e+01 -9.984233067057514788e+00 -3.501646727857612973e+01 1.443838397159754834e+02
1.143538397033427145e+02 -1.220665493515405764e+00 9.053892850201813447e-01 -1.220665493515405764e+00 1.432737586354442954e+02 6.968654029970744901e+00 9.053892850201813447e-01 6.968654029970744901e+00 1.435797135524236126e+02
1.506122043061093621e+02 6.907689017278298316e+00 -4.111066176355675950e+00 6.907689017278298316e+00 1.278062052183074400e+02 -2.238941268060851897e+01 -4.111066176355675950e+00 -2.238941268060851897e+01 1.130700436445604566e+02
9.372205540024191350e+01 2.162539631691298592e+00 -2.446697791236941644e+00 2.162539631691298592e+00 1.148650984198214502e+02 1.351982718538039663e+01 -2.446697791236941644e+00 1.351982718538039663e+01 1.393429040950628917e+02
9.455725253551349851e+01 -1.912267662212082087e+01 -8.184188105429411664e+00 -1.912267662212082087e+01 1.079553850816583918e+02 -3.931796084978968153e+00 -8.184188105429411664e+00 -3.931796084978968153e+00 9.394529562432499858e+01
9.003459013833152369e+01 4.754894372171815320e+00 1.119684835426372516e+01 4.754894372171815320e+00 1.168754844445459611e+02 8.956442984353655490e+00 1.119684835426372516e+01 8.956442984353655490e+00 1.295551713855175535e+02
1.505252055852942021e+02 -1.219286130679970448e+01 -1.620346467459500772e+01 -1.219286130679970448e+01 1.265007065565512789e+02 1.028402086692276507e+00 -1.620346467459500772e+01 1.028402086692276507e+00 1.222634263268917749e+02
1.044051970220732244e+02 -5.546450915346178512e+00 -7.643082425207804675e+00 -5.546450915346178512e+00 1.304017612104196928e+02 1.036118044669335880e+01 -7.643082425207804675e+00 1.036118044669335880e+01 8.681653193553800918e+01
1.277180295667453294e+02 -8.621582648229043855e+00 -2.183771462366428384e+00 -8.621582648229043855e+00 1.238702663370991814e+02 -3.204405806128779677e+00 -2.183771462366428384e+00 -3.204405806128779677e+00 1.214273347242525176e+02
1.696247672875447847e+02 -1.113089315520417522e+01 -1.068794349927890019e+00 -1.113089315520417522e+01 1.094697654123847315e+02 6.392052118420870954e+00 -1.068794349927890019e+00 6.392052118420870954e+00 1.161726214024623829e+02
1.180452594525628882e+02 1.483309359006648975e+01 1.010150244668445119e+01 1.483309359006648975e+01 8.821213641528132143e+01 7.529343837821740770e+00 1.010150244668445119e+01 7.529343837821740770e+00 1.152137523843004203e+02
1.375381984876768229e+02 5.367086669509713026e+00 -8.183576101440992900e+00 5.367086669509713026e+00 1.243582689020180396e+02 -4.801171289142221354e+00 -8.183576101440992900e+00 -4.801171289142221354e+00 1.230487215984923353e+02
7.596847877744289690e+01 1.037577438795564611e+01 -6.348411526323652687e+00 1.037577438795564611e+01 9.306961207135802283e+01 -9.555641966245133290e+00 -6.348411526323652687e+00 -9.555641966245133290e+00 1.121183774425698800e+02
1.389703819750355933e+02 -1.912550125591351957e+01 -1.237815728360084044e+01 -1.912550125591351957e+01 1.069242525156331709e+02 -1.560685494034684240e+01 -1.237815728360084044e+01 -1.560685494034684240e+01 1.039161116808671750e+02
1.182146433256651505e+02 -1.197847160193375871e+01 -1.354035285760734952e+00 -1.197847160193375871e+01 1.170032049692058820e+02 -1.094404362981705248e+01 -1.354035285760734952e+00 -1.094404362981705248e+01 1.139093364988314363e+02
8.388390297749687363e+01 -3.382216503379258832e+00 4.429637790942384079e+00 -3.382216503379258832e+00 1.136409962885249314e+02 1.597575211367349191e+01 4.429637790942384079e+00 1.597575211367349191e+01 1.039843265869608899e+02
1.079700731773804279e+02 -8.730189817558366983e+00 -1.969701882663653691e+01 -8.730189817558366983e+00 1.273543579659351650e+02 -1.106041854207630237e+01 -1.969701882663653691e+01 -1.106041854207630237e+01 1.410126863616176252e+02
1.314613284232914339e+02 7.638045161610821587e+00 -1.390209429199249414e+01 7.638045161610821587e+00 1.103098585795636666e+02 -4.725047408428949325e+00 -1.390209429199249414e+01 -4.725047408428949325e+00 1.337800703037190431e+02
8.839258343740499413e+01 -2.304901174843390077e+00 1.655098878555689268e+01 -2.304901174843390077e+00 1.083857651172061480e+02 -1.298950219080092694e+01 1.655098878555689268e+01 -1.298950219080092694e+01 8.958443766623486226e+01
1.323661057043231892e+02 -6.525421910666199921e+00 -4.912932632873394212e+00 -6.525421910666199921e+00 1.262833980634328697e+02 2.287124812841330268e+01 -4.912932632873394212e+00 2.287124812841330268e+01 1.275066998818214614e+02
1.415547335864368108e+02 -4.672556297114604185e+00 -5.790687583954991169e+00 -4.672556297114604185e+00 1.020470985774673096e+02 -2.117015950398946078e+00 -5.790687583954991169e+00 -2.117015950398946078e+00 1.116642704831634347e+02
1.358799501424422829e+02 3.156999035641293805e+00 -3.942623847850985630e+00 3.156999035641293805e+00 1.225859053515583952e+02 -6.844087679712664851e-01 -3.942623847850985630e+00 -6.844087679712664851e-01 8.944749000451876952e+01
6.532813035757098419e+01 -1.738091327108209905e+00 -4.999837199228804430e+00 -1.738091327108209905e+00 1.033811260405297503e+02 -1.705961117716244857e+01 -4.999837199228804430e+00 -1.705961117716244857e+01 1.034710906268272481e+02
