7.462080000000000268e+00 4.796059999999999768e+00 1.796120000000000161e+01 2.589589999999999836e+00 1.110239999999999938e+01 2.255959999999999965e+01 1.674640000000000128e+01 2.321000000000000008e-01 2.788609999999999811e+00 2.247489999999999988e+00 1.564349999999999952e+01 1.551800000000000124e-01 6.550040000000000084e+00 6.758740000000000414e+00 1.238240000000000052e+01 6.138349999999999973e+00 1.100719999999999921e+01 2.191400000000000148e+01 7.964190000000000325e+00 1.718159999999999954e+01 9.073100000000000165e+00 8.546319999999999695e+00 1.324419999999999931e+01 1.819709999999999894e+01 2.473970000000000002e+00 2.316910000000000025e+00 1.029279999999999973e+01 2.252209999999999823e+00 1.815250000000000030e+00 2.507669999999999888e+01 2.036329999999999973e+00 1.054320000000000057e+01 7.291900000000000048e-01 6.277269999999999683e+00 1.121030000000000015e+01 1.485950000000000060e+01 1.693629999999999924e+01 4.365039999999999587e+00 5.850340000000000096e+00 9.394579999999999487e+00 4.815979999999999706e+00 2.489880000000000138e+01 9.988410000000000011e+00 1.041520000000000046e+01 9.094839999999999591e+00 1.073019999999999996e+01 1.060529999999999973e+01 1.332929999999999948e+00 4.192980000000000373e+00 4.175340000000000273e+00 3.368930000000000202e+00 1.767100000000000060e-01 5.112119999999999997e+00 1.213490000000000002e+01 2.010969999999999924e+00 1.504020000000000046e+01 1.211640000000000050e+01 1.650360000000000049e+00 1.455119999999999969e+01 1.894960000000000022e+01 8.956509999999999749e+00 8.825680000000000192e+00 2.775389999999999802e+00 1.319040000000000035e+01 8.476269999999999527e+00 2.627200000000000091e-01 1.084280000000000044e+01 1.498900000000000077e+01 2.245210000000000150e+00 9.157489999999999242e+00 5.905700000000000394e-01 2.219310000000000116e+01 1.867490000000000094e+00 1.989219999999999988e+00 3.673230000000000217e+00 1.076060000000000016e+01 6.189189999999999969e+00 1.533549999999999969e+01 4.143299999999999983e+00 8.643779999999999575e+00 1.433899999999999897e-01 1.731190000000000007e+00 1.132399999999999984e+01 1.882339999999999947e+01 1.074039999999999928e+01 3.011010000000000186e+00 5.600159999999999805e+00 7.980050000000000310e+00 3.803300000000000125e+00 1.206739999999999924e+01 1.067280000000000051e+01 1.545420000000000016e+01 9.101110000000000255e+00 1.559529999999999994e+01 1.883459999999999912e+00 1.588799999999999990e+01 1.545930000000000071e+01 1.553309999999999924e+01 9.480339999999999989e+00 4.070590000000000153e+00 1.701190000000000069e+01 1.962219999999999942e+01 3.225969999999999782e+00 1.021879999999999988e+01 6.870750000000000135e+00 3.836339999999999861e+00 1.245519999999999960e+01 1.577519999999999989e+01 1.082259999999999955e+01 2.115660000000000096e+00 8.975469999999999615e+00 6.355520000000000280e+00 1.530579999999999963e+01 1.691310000000000002e+01 1.525919999999999987e+01 1.609669999999999845e+01 1.635900000000000176e+01 8.038859999999999673e+00 8.531660000000000466e+00 1.625700000000000145e+01 3.052669999999999995e+00 6.245370000000000310e+00 6.450719999999999565e+00 1.733549999999999924e+00 6.774079999999999657e+00 1.865480000000000160e+01 1.695560000000000045e+01 1.325019999999999953e+01 5.826880000000000059e+00 2.345340000000000202e+00 1.510539999999999949e+01 2.225019999999999953e+01 1.514550000000000018e+01 1.110899999999999999e+01 7.118490000000000428e+00 1.137390000000000079e+01 6.046160000000000423e+00 3.203599999999999781e+00 1.043329999999999913e+01 1.598850000000000016e+01 1.255969999999999942e+01 1.257859999999999978e+01 8.239430000000000476e+00 1.891100000000000136e+01 2.104769999999999808e+00 7.193340000000000067e+00 4.001799999999999802e-01 5.225970000000000226e+00 4.347389999999999866e+00 9.563150000000000261e+00 1.540999999999999870e-01 1.721679999999999922e+01 9.977619999999999933e+00 1.501549999999999940e+01 1.557349999999999923e+01 4.584170000000000300e+00 1.078240000000000087e+01 1.726339999999999986e+00 5.862600000000000033e-01 1.337349999999999994e+01 4.306689999999999685e+00 9.330669999999999575e+00 1.290080000000000027e+01 1.677400000000000091e+01 9.005699999999999816e-01 1.149489999999999945e+01 1.016459999999999919e+00 1.310629999999999917e+01 1.827329999999999899e+00 1.462860000000000049e+01 6.264140000000000263e+00 1.399760000000000026e+01 1.705069999999999908e+01 1.934479999999999933e+01 4.990029999999999966e+00 8.494320000000000093e+00 1.951030000000000086e+01 1.888919999999999932e+00 1.068580000000000041e+01 1.599959999999999916e+01 8.501300000000000523e+00 1.611970000000000169e+01 3.247630000000000017e+00 1.476650000000000063e+01 6.655499999999999972e+00 1.632610000000000028e+01 1.350079999999999991e+01 3.427010000000000112e+00 3.512070000000000025e+00 4.592769999999999797e+00 3.086139999999999883e+00 1.613520000000000110e+01 1.490959999999999930e+01 7.014719999999999622e+00 1.333380000000000010e+01 6.322239999999999860e+00 6.289789999999999992e+00 2.266169999999999973e+01 6.436309999999999754e+00 1.487349999999999994e+01 2.636509999999999909e+00 4.046219999999999928e+00 1.306739999999999924e+01 2.214799999999999969e+01 1.083789999999999942e+01 6.320380000000000109e+00 6.453280000000000349e+00 1.041290000000000049e+01 6.264070000000000249e+00 2.295789999999999864e+01 3.845460000000000100e+00 1.658520000000000039e+01 7.303960000000000008e+00 1.063429999999999964e+01 1.765600000000000058e+00 1.865940000000000154e+01 6.094149999999999956e+00 7.224709999999999965e+00 7.884900000000000242e-01 6.612529999999999575e+00 1.103669999999999973e+01 1.145040000000000013e+01 4.852929999999999744e+00 4.742000000000000104e-01 1.006639999999999979e+00 4.004590000000000316e+00 1.708299999999999841e+01 1.377219999999999978e+01 1.448850000000000016e+01 1.135500000000000043e+01 2.164870000000000161e+01 1.058880000000000088e+01 7.112899999999999778e+00 1.306850000000000023e+01 1.503170000000000073e+01 2.738640000000000185e+00 2.051879999999999882e+01 1.526149999999999984e+01 2.244079999999999853e+00 8.927519999999999456e+00 6.681720000000000326e+00 7.003330000000000055e+00 8.812749999999999417e+00 6.623999999999999666e+00 1.076629999999999932e+01 1.828160000000000096e+01 2.285909999999999886e+00 1.164569999999999972e+01 5.525319999999999787e+00 1.278449999999999953e+01 1.410030000000000072e+01 1.552909999999999968e+01 1.495640000000000036e+01 6.872040000000000148e+00 6.621599999999999930e+00 1.485280000000000022e+01 5.473840000000000039e+00 2.207860000000000156e+01 8.560729999999999507e+00 1.309340000000000082e+01 5.406810000000000116e+00 1.079139999999999944e+01 1.513979999999999926e+01 1.860079999999999956e+01 6.880650000000000155e+00 2.055619999999999781e+00 1.864560000000000173e+01 6.749489999999999768e+00 1.801579999999999959e+00 4.203199999999999825e+00 1.037609999999999921e+01 6.250849999999999795e+00 9.826380000000000337e+00 5.936490000000000045e+00 1.054439999999999955e+01 2.477939999999999898e+01 2.379869999999999930e+00 6.155190000000000161e+00 9.971069999999999212e+00 1.498189999999999955e+01 2.346099999999999852e+00 1.466739999999999933e+00 1.208639999999999937e+01 1.275500000000000078e+01 9.335739999999999483e+00 1.434469999999999956e+01 1.051740000000000030e+01 1.834260000000000090e+01 5.301449999999999996e+00 2.167419999999999902e+00 7.053279999999999994e+00 9.586000000000000298e+00 2.459189999999999987e+00 1.121299999999999919e+01 7.006999999999999673e+00 1.020340000000000025e+01 4.429009999999999891e+00 8.918480000000000629e+00 1.291089999999999982e+01 1.215959999999999930e+01 1.234689999999999976e+01 1.730880000000000152e+01 6.999649999999999928e+00 1.506150000000000055e+01 2.046120000000000161e+00 6.693209999999999660e+00 2.240369999999999973e+00 6.432109999999999772e+00 3.103520000000000056e+00 1.491769999999999996e+01 1.125079999999999991e+01 1.504570000000000007e+01 8.816760000000000375e+00 9.891529999999999490e+00 2.155580000000000140e+01 1.053919999999999924e+01 5.731700000000000017e+00 1.879139999999999944e+01 2.241150000000000198e+00 2.071470000000000145e+00 6.986010000000000275e+00 4.848900000000000432e+00 1.298869999999999969e+01 8.843939999999999912e+00 3.076999999999999735e-01 9.189849999999999852e+00 3.381310000000000038e+00 1.529410000000000025e+01 1.065700000000000003e+01 9.924170000000000158e+00 1.468859999999999921e+01 1.521340000000000003e+01 2.365889999999999915e+01 1.650959999999999894e+01 1.246690000000000076e+01 1.808340000000000103e+01 2.881860000000000088e+00 2.876069999999999904e+00 2.259530000000000172e+01 6.507220000000000226e+00 6.263919999999999710e+00 1.501880000000000059e+01 6.212449999999999584e+00 1.521690000000000076e+01 2.399380000000000024e+01 6.517420000000000435e+00 1.516729999999999912e+01 5.519260000000000055e+00 1.668759999999999977e+01 9.200469999999999260e+00 2.150049999999999883e+01 1.290210000000000079e+01 9.132860000000000866e+00 1.309469999999999956e+01 1.610129999999999839e+01 1.545609999999999928e+01 2.078209999999999980e+01 1.765570000000000084e+00 1.541290000000000049e+01 1.582779999999999987e+01 5.798140000000000072e+00 1.948430000000000106e+00 1.287989999999999924e+01 6.514499999999999957e+00 2.354940000000000033e+00 2.151650000000000063e+01 4.674389999999999823e+00 1.229429999999999978e+01 3.175530000000000186e+00 5.840340000000000309e+00 1.464010000000000034e+01 1.453430000000000000e+01 1.294369999999999976e+01 1.265039999999999942e+01 3.169919999999999849e+00 1.658980000000000032e+01 3.658819999999999961e+00 1.826310000000000144e+01 1.542050000000000054e+01 1.076280000000000037e+01 2.474869999999999948e+01 2.507839999999999847e+00 6.262769999999999726e+00 1.537129999999999974e+01 6.914500000000000313e+00 6.796730000000000160e+00 4.197729999999999961e+00 1.415300000000000002e+00 2.361169999999999991e+00 1.577519999999999989e+01 1.250830000000000020e+01 8.997049999999999770e+00 6.793590000000000018e+00 6.959500000000000242e+00 1.540049999999999919e+01 2.116679999999999851e+01 1.554429999999999978e+01 6.409449999999999648e+00 2.443220000000000169e+00 1.548939999999999984e+01 6.193229999999999791e+00 2.446689999999999898e+01 1.543019999999999925e+01 1.087400000000000055e+01 3.439000000000000057e+00 1.128959999999999964e+00 1.526549999999999940e+01 3.298659999999999926e+00 8.029170000000000584e+00 4.256809999999999761e+00 5.458649999999999558e+00 6.313799999999999635e+00 2.635889999999999844e+00 2.511300000000000199e-01 6.574530000000000207e+00 1.069130000000000003e+01 7.470030000000000392e+00 4.540490000000000137e+00 8.680920000000000414e+00 1.345519999999999960e+01 1.133510000000000062e+01 1.387640000000000029e+01 6.081690000000000040e+00 1.710829999999999984e+01 9.509999999999999357e-03 2.230499999999999972e+01 1.678150000000000031e+00 1.013649999999999984e+01 1.300580000000000069e+01 1.091879999999999917e+01 1.121829999999999927e+01 2.296730000000000160e+01 1.136730000000000018e+01 2.312139999999999862e+00 2.199980000000000047e+01 9.019389999999999574e+00 1.663609999999999900e+01 1.561359999999999992e+01 1.163819999999999943e+01 1.478989999999999938e+01 2.166959999999999908e+01 1.120079999999999920e+01 1.075779999999999959e+01 1.939260000000000161e+01 2.701299999999999812e-01 8.678240000000000620e+00 8.993370000000000530e+00 2.061490000000000045e+00 2.207819999999999894e+00 2.021069999999999922e+01 1.469100000000000072e+01 1.489780000000000015e+01 1.387800000000000011e+01 1.055390000000000050e+01 1.101360000000000028e+01 1.600290000000000035e+01 1.260759999999999970e+01 4.582449999999999690e+00 1.567989999999999995e+01 2.143819999999999837e+00 6.664279999999999760e+00 2.213449999999999918e+01 1.060420000000000051e+01 1.050169999999999959e+01 1.319389999999999930e+01 8.394830000000000680e+00 1.278439999999999976e+01 2.467259999999999920e+01 1.567099999999999937e+01 2.872590000000000199e+00 1.271320000000000050e+01 1.706240000000000023e+01 3.885959999999999859e+00 2.456240000000000023e+01 1.289899999999999936e-01 1.294379999999999953e+01 1.272489999999999988e+01 2.749300000000000077e-01 1.266339999999999932e+01 2.442010000000000147e+01 4.018399999999999750e+00 8.659940000000000637e+00 2.216479999999999961e+01 4.198030000000000150e+00 1.246199999999999947e-01 2.269180000000000064e+01 1.279550000000000054e+01 8.579319999999999169e+00 2.201050000000000040e+01 1.337390000000000079e+01 1.699170000000000158e+01 1.025939999999999941e+01 8.692159999999999442e+00 3.747329999999999828e+00 1.478330000000000055e+01 8.688560000000000727e+00 1.288119999999999976e+01 2.281989999999999963e+00 8.507590000000000430e+00 1.301549999999999940e+01 1.498440000000000083e+01 9.660000000000000531e-02 4.454369999999999941e+00 2.320730000000000182e+00 1.418999999999999984e-01 1.306780000000000008e+01 2.566219999999999946e+00 1.727929999999999922e+01 1.314949999999999974e+01 1.525569999999999915e+01 1.732979999999999876e+01 1.308980000000000032e+01 2.159100000000000108e+01 8.272159999999999513e+00 4.078159999999999563e+00 8.663560000000000372e+00 4.200319999999999609e+00 1.012600000000000028e-01 3.820180000000000131e+00 4.329909999999999926e+00 8.543680000000000163e+00 3.812850000000000072e+00 1.244480000000000075e+01 4.478000000000000036e-02 3.758410000000000029e+00 1.250040000000000084e+01 8.605449999999999378e+00 1.602149999999999963e+01 4.109810000000000407e+00 8.511649999999999494e+00 9.883129999999999526e+00 4.369839999999999947e+00 1.700799999999999912e+01 1.028759999999999941e+01 1.307900000000000063e+01 8.742770000000000152e+00 1.034730000000000061e+01 1.322460000000000058e+01 5.777299999999999658e-01 2.278310000000000102e+01 8.516389999999999461e+00 4.289259999999999629e+00 2.215959999999999930e+00 1.732989999999999853e+01 4.441869999999999763e+00 1.516000000000000014e+01 1.732389999999999830e+01 4.424690000000000012e+00 8.836320000000000618e+00 1.729700000000000060e+01 4.617820000000000036e+00 2.119079999999999941e+01 1.734600000000000031e-01 1.286560000000000059e+01 8.974909999999999499e+00 8.292249999999999233e+00 4.291590000000000238e+00 2.086700000000000088e+01 8.377240000000000464e+00 1.306589999999999918e+01 8.553610000000000824e+00 8.692249999999999588e+00 1.304439999999999955e+01 2.117190000000000083e+01 4.225259999999999572e+00 1.722259999999999991e+01 1.672540000000000049e+01 4.430609999999999715e+00 8.300470000000000681e+00 1.648819999999999908e+01 1.271359999999999957e+01 1.726800000000000068e+01 1.628519999999999968e+01 1.341849999999999987e+01 8.511160000000000281e+00 3.752439999999999998e+00 4.141720000000000290e+00 4.436530000000000307e+00 1.297250000000000014e+01 4.268239999999999590e+00 4.484359999999999680e+00 1.059900000000000009e-01 3.932749999999999968e+00 1.270880000000000010e+01 1.274859999999999971e+01 4.349820000000000242e+00 1.310590000000000011e+01 2.506099999999999994e+01 1.276590000000000025e+01 4.645640000000000214e+00 1.223320000000000007e+01 1.304420000000000002e+01 4.578730000000000189e+00 2.485940000000000083e+01 1.253619999999999912e+01 1.288949999999999996e+01 1.262710000000000043e+01 1.320369999999999955e+01 1.283109999999999928e+01 2.505089999999999861e+01 8.626910000000000522e+00 8.654350000000000875e+00 6.203680000000000305e+00 8.644920000000000826e+00 8.277770000000000294e+00 1.926340000000000074e+01 8.987360000000000682e+00 1.729749999999999943e+01 5.998050000000000104e+00 8.865589999999999193e+00 1.719950000000000045e+01 1.902240000000000109e+01 2.930999999999999925e-02 8.635550000000000281e+00 6.326200000000000045e+00 1.695309999999999917e+01 8.861879999999999313e+00 1.860249999999999915e+01 1.721229999999999905e+01 1.163000000000000006e-01 6.570870000000000211e+00 1.711080000000000112e+01 1.722299999999999898e+01 1.882900000000000063e+01 9.632999999999999896e-02 6.179280000000000328e+00 7.826999999999999513e-01 5.577299999999999480e-01 5.978399999999999714e+00 1.409900000000000020e+01 3.196999999999999842e-02 1.461829999999999963e+01 1.030180000000000096e+00 1.709540000000000148e+01 1.488649999999999984e+01 1.389620000000000033e+01 8.859270000000000422e+00 6.236609999999999765e+00 1.349690000000000056e+00 8.630829999999999558e+00 5.767999999999999794e+00 1.370359999999999978e+01 8.342890000000000583e+00 1.471969999999999956e+01 1.251940000000000053e+00 8.580370000000000275e+00 1.469940000000000069e+01 1.370640000000000036e+01 6.436999999999999666e-02 2.498079999999999856e+00 1.008489999999999931e+01 1.173099999999999976e-01 2.733579999999999899e+00 2.226200000000000045e+01 7.921000000000000263e-02 1.116649999999999920e+01 9.904780000000000584e+00 1.720499999999999829e+01 1.117249999999999943e+01 2.267360000000000042e+01 8.030070000000000263e+00 2.047340000000000160e+00 9.695610000000000284e+00 8.528069999999999595e+00 2.946750000000000203e+00 2.261499999999999844e+01 8.003170000000000783e+00 1.132929999999999993e+01 9.624359999999999360e+00 8.556070000000000064e+00 1.160260000000000069e+01 2.270949999999999847e+01 1.660259999999999891e+01 7.344990000000000130e+00 4.996850000000000236e+00 1.699599999999999866e+01 7.040210000000000079e+00 1.783650000000000091e+01 1.700309999999999988e+01 1.572029999999999994e+01 5.357230000000000381e+00 1.637340000000000018e+01 1.540850000000000009e+01 1.823389999999999844e+01 9.002720000000000056e+00 7.106049999999999756e+00 4.824959999999999916e+00 7.077169999999999739e+00 8.544460000000000832e+00 2.074540000000000006e+01 9.057069999999999510e+00 1.531499999999999950e+01 5.640290000000000248e+00 8.649309999999999832e+00 1.534290000000000020e+01 1.762229999999999919e+01 3.110800000000000232e-01 2.308520000000000127e+00 1.406870000000000065e+00 1.577399999999999913e-01 2.955039999999999889e+00 1.376239999999999952e+01 1.708269999999999911e+01 1.099900000000000055e+01 1.602459999999999996e+00 1.107699999999999935e-01 1.112870000000000026e+01 1.421410000000000018e+01 8.458669999999999689e+00 2.519610000000000127e+00 1.039579999999999949e+00 8.340249999999999275e+00 1.967519999999999936e+00 1.327880000000000038e+01 8.470309999999999562e+00 1.098659999999999926e+01 1.260610000000000008e+00 8.359489999999999199e+00 1.117060000000000031e+01 1.371909999999999918e+01 1.932900000000000063e+00 8.586819999999999453e+00 7.087089999999999890e+00 1.406190000000000051e+00 9.008609999999999118e+00 1.982710000000000150e+01 1.526939999999999964e+00 1.680249999999999844e+01 7.607949999999999768e+00 1.495109999999999939e+00 1.711769999999999925e+01 1.970670000000000144e+01 9.785970000000000724e+00 8.118550000000000821e+00 7.791000000000000369e+00 1.040649999999999942e+01 8.251319999999999766e+00 2.026389999999999958e+01 1.027599999999999980e+01 1.650699999999999945e-01 7.508639999999999759e+00 1.065119999999999933e+01 7.073000000000000120e-02 2.002710000000000079e+01 1.929179999999999895e+00 4.591999999999999638e+00 3.970790000000000042e+00 1.377610000000000001e+00 4.328210000000000335e+00 1.674320000000000164e+01 1.960129999999999928e+00 1.311930000000000085e+01 3.817289999999999850e+00 1.535349999999999993e+00 1.271879999999999988e+01 1.706469999999999843e+01 1.011640000000000050e+01 4.207460000000000200e+00 3.716810000000000169e+00 1.018580000000000041e+01 4.071360000000000312e+00 1.634459999999999980e+01 1.059570000000000078e+01 1.290499999999999936e+01 3.540890000000000093e+00 1.034980000000000011e+01 1.320359999999999978e+01 1.645820000000000149e+01 1.551230000000000109e+00 4.447980000000000267e+00 7.469319999999999737e+00 1.862719999999999931e+00 4.729169999999999874e+00 2.022220000000000084e+01 2.229039999999999910e+00 1.270439999999999969e+01 7.993509999999999671e+00 1.885410000000000030e+00 1.299419999999999931e+01 2.052530000000000143e+01 1.012160000000000082e+01 4.390030000000000321e+00 7.368140000000000356e+00 1.023380000000000045e+01 3.914670000000000094e+00 2.007789999999999964e+01 1.028149999999999942e+01 1.270599999999999952e+01 7.710370000000000168e+00 1.038909999999999911e+01 1.279059999999999953e+01 1.996259999999999835e+01 2.321810000000000151e+00 8.294650000000000745e+00 1.092319999999999958e+01 2.415299999999999780e+00 8.949149999999999494e+00 2.381210000000000093e+01 2.914800000000000058e+00 7.689999999999999787e-03 1.170240000000000080e+01 2.206989999999999785e+00 1.132000000000000020e-02 2.378480000000000061e+01 1.134970000000000034e+01 8.696770000000000778e+00 1.148339999999999961e+01 1.134970000000000034e+01 8.907560000000000144e+00 2.362150000000000105e+01 1.114579999999999949e+01 1.517900000000000083e-01 1.093490000000000073e+01 1.135689999999999955e+01 5.478300000000000392e-01 2.350080000000000169e+01 2.648249999999999993e+00 2.191099999999999992e-01 2.372510000000000119e+00 2.260759999999999881e+00 4.150000000000000216e-02 1.566109999999999935e+01 2.433759999999999923e+00 8.622329999999999828e+00 2.345629999999999882e+00 2.674329999999999874e+00 8.544359999999999289e+00 1.557029999999999959e+01 1.105990000000000073e+01 1.313100000000000100e-01 2.179889999999999883e+00 1.100229999999999997e+01 1.709400000000000119e+01 1.511909999999999954e+01 1.169769999999999932e+01 8.544890000000000541e+00 2.544369999999999798e+00 1.074099999999999966e+01 8.663220000000000809e+00 1.468759999999999977e+01 2.831189999999999873e+00 4.519540000000000113e+00 1.129700000000000060e+01 2.548810000000000020e+00 4.564589999999999925e+00 2.399960000000000093e+01 2.394680000000000142e+00 1.234360000000000035e+01 1.145960000000000001e+01 2.595769999999999911e+00 1.317210000000000036e+01 2.410620000000000118e+01 1.144960000000000022e+01 4.115039999999999587e+00 1.078730000000000011e+01 1.136560000000000059e+01 4.265699999999999825e+00 2.376859999999999928e+01 1.103180000000000049e+01 1.217939999999999934e+01 1.145110000000000028e+01 1.131349999999999945e+01 1.305710000000000015e+01 2.449840000000000018e+01 4.458429999999999893e+00 6.445109999999999673e+00 4.650960000000000427e+00 4.399070000000000036e+00 6.567899999999999849e+00 1.744109999999999872e+01 4.119419999999999860e+00 1.554700000000000060e+01 5.059420000000000250e+00 4.085219999999999629e+00 1.543599999999999994e+01 1.766140000000000043e+01 1.324660000000000082e+01 6.896639999999999660e+00 5.084710000000000285e+00 1.237420000000000009e+01 6.861030000000000406e+00 1.735369999999999990e+01 1.265220000000000056e+01 1.561420000000000030e+01 5.239639999999999631e+00 1.296260000000000012e+01 1.550019999999999953e+01 1.751999999999999957e+01 4.211850000000000094e+00 2.665849999999999831e+00 1.147860000000000102e+00 3.853520000000000056e+00 2.825210000000000221e+00 1.417660000000000053e+01 4.219540000000000290e+00 1.137829999999999941e+01 1.058089999999999975e+00 4.023959999999999759e+00 1.091029999999999944e+01 1.383109999999999928e+01 1.281129999999999924e+01 2.927669999999999995e+00 1.110149999999999970e+00 1.276130000000000031e+01 3.061700000000000088e+00 1.344040000000000035e+01 1.347129999999999939e+01 1.102909999999999968e+01 7.226900000000000546e-01 1.249210000000000065e+01 1.188299999999999912e+01 1.433339999999999925e+01 4.356869999999999798e+00 6.811379999999999768e+00 8.650249999999999773e+00 4.173779999999999824e+00 6.680109999999999992e+00 2.101729999999999876e+01 4.049120000000000275e+00 1.522209999999999930e+01 9.254139999999999588e+00 4.654189999999999827e+00 1.578410000000000046e+01 2.122370000000000090e+01 1.288519999999999932e+01 6.687949999999999839e+00 9.027919999999999945e+00 1.299479999999999968e+01 6.542980000000000018e+00 2.109420000000000073e+01 1.325339999999999918e+01 1.509750000000000014e+01 9.087300000000000821e+00 1.363589999999999947e+01 1.598440000000000083e+01 2.177880000000000038e+01 4.193679999999999630e+00 6.178110000000000213e+00 1.434700000000000086e+00 4.384820000000000384e+00 6.329509999999999970e+00 1.391119999999999912e+01 4.664119999999999600e+00 1.485149999999999970e+01 7.393999999999999462e-01 3.428399999999999892e+00 1.425750000000000028e+01 1.408319999999999972e+01 1.332859999999999978e+01 6.061350000000000016e+00 1.132609999999999895e+00 1.241290000000000049e+01 6.427290000000000170e+00 1.340179999999999971e+01 1.375360000000000049e+01 1.438100000000000023e+01 1.265079999999999982e+00 1.255949999999999989e+01 1.489370000000000083e+01 1.284379999999999988e+01 4.089419999999999611e+00 2.196590000000000042e+00 5.010790000000000077e+00 4.448929999999999829e+00 1.454309999999999992e+00 1.791959999999999908e+01 4.482829999999999870e+00 1.024160000000000004e+01 5.151600000000000179e+00 4.506820000000000270e+00 1.006090000000000018e+01 1.760360000000000014e+01 1.247000000000000064e+01 1.796780000000000044e+00 5.244369999999999976e+00 1.288909999999999911e+01 1.422779999999999934e+00 1.757049999999999912e+01 1.358140000000000036e+01 1.057160000000000011e+01 4.806989999999999874e+00 1.240349999999999930e+01 1.049210000000000065e+01 1.729019999999999868e+01 4.136160000000000281e+00 1.476120000000000099e+00 8.893060000000000187e+00 4.361860000000000070e+00 1.833369999999999944e+00 2.131030000000000157e+01 4.173709999999999809e+00 1.046310000000000073e+01 9.306810000000000471e+00 4.075969999999999871e+00 1.043079999999999963e+01 2.089910000000000068e+01 1.313620000000000054e+01 1.771030000000000104e+00 8.531449999999999534e+00 1.326229999999999976e+01 1.995230000000000059e+00 2.132160000000000011e+01 1.292960000000000065e+01 1.016740000000000066e+01 8.703530000000000655e+00 1.246410000000000018e+01 1.073509999999999920e+01 2.109169999999999945e+01 5.739099999999999646e+00 4.343110000000000248e+00 1.173249999999999993e+01 6.093700000000000117e+00 4.565319999999999823e+00 2.422190000000000154e+01 5.646270000000000344e+00 1.343009999999999948e+01 1.203589999999999982e+01 5.915639999999999787e+00 1.297680000000000078e+01 2.347640000000000171e+01 1.465210000000000079e+01 4.944989999999999775e+00 1.153400000000000070e+01 1.471139999999999937e+01 4.022960000000000313e+00 2.406299999999999883e+01 1.440290000000000070e+01 1.249530000000000030e+01 1.180039999999999978e+01 1.465080000000000027e+01 1.270950000000000024e+01 2.350240000000000151e+01 6.034709999999999575e+00 8.856999999999999595e-02 2.845590000000000064e+00 5.948959999999999582e+00 1.718410000000000082e+01 1.524230000000000018e+01 6.099400000000000155e+00 8.701840000000000686e+00 2.361180000000000057e+00 6.197289999999999743e+00 8.514089999999999492e+00 1.521310000000000073e+01 1.446180000000000021e+01 1.732669999999999888e+01 2.753280000000000172e+00 1.434570000000000078e+01 1.074999999999999914e-02 1.492440000000000033e+01 1.518410000000000082e+01 8.370870000000000033e+00 2.417069999999999830e+00 1.466590000000000060e+01 8.491020000000000678e+00 1.503739999999999988e+01 5.923910000000000231e+00 8.675470000000000681e+00 1.139370000000000083e+01 5.906659999999999577e+00 8.517419999999999547e+00 2.353359999999999985e+01 6.133219999999999672e+00 1.709499999999999886e+01 1.124440000000000062e+01 6.153590000000000337e+00 3.040900000000000269e-01 2.411210000000000164e+01 1.469120000000000026e+01 8.784330000000000638e+00 1.156450000000000067e+01 1.475300000000000011e+01 8.310119999999999507e+00 2.308899999999999864e+01 1.522180000000000000e+01 1.701989999999999981e+01 1.161539999999999928e+01 1.471909999999999918e+01 4.744399999999999729e-01 2.426269999999999882e+01 6.750429999999999708e+00 4.156209999999999738e+00 3.438839999999999897e+00 6.913030000000000008e+00 3.974089999999999900e+00 1.596889999999999965e+01 6.964719999999999800e+00 1.275949999999999918e+01 3.742539999999999978e+00 6.510239999999999583e+00 1.291990000000000016e+01 1.623290000000000077e+01 1.555530000000000079e+01 4.033380000000000187e+00 3.634209999999999940e+00 1.523739999999999917e+01 4.334830000000000183e+00 1.549990000000000023e+01 1.567130000000000045e+01 1.342029999999999923e+01 3.912339999999999929e+00 1.527679999999999971e+01 1.330170000000000030e+01 1.630720000000000169e+01 6.710779999999999745e+00 8.308070000000000732e+00 6.883799999999999919e+00 8.782289999999999708e+00 1.011930000000000085e+01 1.799830000000000041e+01 7.031299999999999883e+00 1.728910000000000124e+01 6.779499999999999638e+00 7.212839999999999918e+00 4.590000000000000330e-03 2.021099999999999852e+01 1.578369999999999962e+01 8.878069999999999240e+00 7.842629999999999768e+00 1.530419999999999980e+01 8.904669999999999419e+00 1.988100000000000023e+01 1.552260000000000062e+01 1.726640000000000086e+01 7.835049999999999848e+00 1.594800000000000040e+01 4.698100000000000054e-01 2.040159999999999840e+01 6.355699999999999683e+00 4.335250000000000270e+00 7.658520000000000216e+00 6.417650000000000077e+00 4.023659999999999570e+00 1.985930000000000106e+01 6.740280000000000271e+00 1.328079999999999927e+01 7.155829999999999913e+00 6.686359999999999637e+00 1.307779999999999987e+01 2.011430000000000007e+01 1.544480000000000075e+01 4.273690000000000211e+00 7.554780000000000051e+00 1.551309999999999967e+01 4.731770000000000032e+00 1.997640000000000171e+01 1.587589999999999968e+01 1.318309999999999960e+01 7.801429999999999865e+00 1.560660000000000025e+01 1.334029999999999916e+01 2.009059999999999846e+01 9.043789999999999552e+00 1.467919999999999892e+00 4.528419999999999668e+00 8.577999999999999403e+00 1.401080000000000103e+00 1.771620000000000061e+01 8.934570000000000789e+00 1.052860000000000085e+01 5.711339999999999861e+00 8.420749999999999957e+00 6.846059999999999590e+00 1.782939999999999969e+01 1.723669999999999902e+01 1.829879999999999951e+00 5.346269999999999634e+00 1.730349999999999966e+01 1.343669999999999920e+00 1.748780000000000001e+01 1.599000000000000074e-02 1.047840000000000060e+01 5.361780000000000435e+00 1.674990000000000023e+01 1.026449999999999996e+01 1.730770000000000053e+01 8.144090000000000273e+00 5.666760000000000019e+00 1.018580000000000041e+01 8.447889999999999233e+00 6.031170000000000364e+00 2.175130000000000052e+01 8.389089999999999492e+00 1.438519999999999932e+01 1.000760000000000005e+01 9.194639999999999702e+00 1.471990000000000087e+01 2.234290000000000020e+01 1.712750000000000128e+01 6.045090000000000074e+00 9.917270000000000252e+00 7.639999999999999569e-02 6.141379999999999839e+00 2.242839999999999989e+01 3.978999999999999898e-02 1.449719999999999942e+01 1.033399999999999963e+01 1.711759999999999948e+01 1.495790000000000042e+01 2.288279999999999959e+01