-1.663767399569999952e+03
-1.663285754060000045e+03
-1.670394392980000021e+03
-1.663045606959999986e+03
-1.664219809480000094e+03
-1.666838769619999994e+03
-1.659756152319999956e+03
-1.656517246310000019e+03
-1.663444545240000025e+03
-1.657492581900000005e+03
-1.664356927099999893e+03
-1.665774638240000058e+03
-1.664838587290000078e+03
-1.657546745699999974e+03
-1.659086107820000052e+03
-1.662304210739999917e+03
-1.660854325259999996e+03
-1.666464545920000091e+03
-1.658646031579999999e+03
-1.661629848309999943e+03
-1.658199813610000092e+03
-1.662124163230000022e+03
-1.662686667989999933e+03
-1.657960448880000058e+03
-1.666748635310000054e+03
-1.663322238870000092e+03
-1.662705388320000111e+03
-1.661823279969999930e+03
-1.653501945740000110e+03
-1.669182676650000076e+03
-1.663784770459999891e+03
-1.659231732550000061e+03
-1.660002361699999938e+03
-1.656144628909999938e+03
-1.663967904690000069e+03
-1.657737369899999976e+03
-1.665057468810000046e+03
-1.664370823109999947e+03
-1.659088831580000033e+03
-1.662946759429999929e+03
-1.663836628230000088e+03
-1.660856866829999944e+03
-1.654772761649999893e+03
-1.660237205079999967e+03
-1.660382872919999954e+03
-1.657174771839999948e+03
-1.661851578250000102e+03
-1.665447578230000090e+03
-1.658288518690000046e+03
-1.662732068790000085e+03
-1.659314515549999896e+03
-1.656163330869999982e+03
-1.661895611839999901e+03
-1.660643835390000049e+03
-1.659282507379999970e+03
-1.662105224169999929e+03
-1.662131400709999980e+03
-1.660529441140000017e+03
-1.681006851419999975e+03
-1.666589267629999995e+03
-1.659063486660000081e+03
-1.666681955649999963e+03
-1.664645217029999912e+03
-1.661322114170000077e+03
-1.662062099750000016e+03
-1.656615735979999954e+03
-1.655704987280000068e+03
-1.664314674510000032e+03
-1.664336633460000030e+03
-1.658880843489999961e+03
-1.661160692330000074e+03
-1.660657558899999913e+03
-1.665460522059999903e+03
-1.683682527590000063e+03
-1.660559925889999931e+03
-1.660610289080000030e+03
-1.654296187250000003e+03
-1.660697334680000040e+03
-1.668351340639999989e+03
-1.665244027899999992e+03
-1.665360079249999899e+03
-1.662465729849999889e+03
-1.665760758319999923e+03
-1.659903409819999979e+03
-1.660202851980000105e+03
-1.664430955600000061e+03
-1.662233293439999898e+03
-1.667022801939999908e+03
-1.659873850339999990e+03
-1.660105555439999989e+03
-1.664271245299999919e+03
-1.658158313879999923e+03
-1.662288538130000006e+03
-1.660486972330000071e+03
-1.665789722250000068e+03
-1.659500211959999888e+03
-1.663796766550000029e+03
-1.660297911579999891e+03
-1.666622808159999977e+03
-1.662254116789999898e+03
-1.662074028940000062e+03
-1.659724358709999933e+03
-1.663475600530000065e+03
-1.660482191900000089e+03
-1.657357714120000082e+03
-1.669201169299999947e+03
-1.662428608530000020e+03
-1.659317262479999954e+03
-1.656956468229999928e+03
-1.662324166760000026e+03
-1.662529814349999924e+03
-1.657011778300000060e+03
-1.660280887619999930e+03
-1.667358822760000066e+03
-1.660542399879999948e+03
-1.656560757740000099e+03
-1.657877263560000074e+03
-1.658004659619999984e+03
-1.659371849999999995e+03
-1.661857692900000075e+03
-1.660863766810000016e+03
-1.661818102839999938e+03
-1.662153417239999953e+03
-1.663921666060000007e+03
-1.664414727370000037e+03
-1.661319065030000047e+03
-1.664306459720000021e+03
-1.659927789820000044e+03
-1.684143567099999927e+03
-1.663605538450000040e+03
-1.652042124320000084e+03
-1.662158358769999950e+03
-1.663552115660000027e+03
