-2.463200000000000112e-02 2.291600000000000026e-01 -5.780699999999999728e-02 6.884999999999999627e-03 1.168030000000000040e-01 6.656769999999999632e-01 3.195370000000000155e-01 -1.924349999999999949e-01 1.449800000000000047e-02 3.210400000000000059e-02 -2.178700000000000081e-02 -2.770360000000000045e-01 -9.062949999999999617e-01 1.657420000000000004e-01 -8.298889999999999878e-01 2.552730000000000277e-01 2.858669999999999822e-01 2.790279999999999982e-01 -2.892870000000000164e-01 7.628000000000000232e-03 -1.862300000000000066e-02 -5.179909999999999792e-01 -7.085749999999999549e-01 -2.269180000000000086e-01 -1.649329999999999963e-01 -7.019670000000000076e-01 2.935570000000000124e-01 3.945870000000000211e-01 1.669527999999999901e+00 -5.556999999999999718e-01 -4.712210000000000010e-01 4.240610000000000213e-01 -4.171719999999999873e-01 5.391399999999999526e-01 3.196820000000000217e-01 -9.060920000000000085e-01 3.566759999999999931e-01 -1.641880000000000006e-01 -4.115219999999999989e-01 7.261900000000000299e-02 -6.287760000000000016e-01 3.863710000000000200e-01 4.495899999999999896e-02 6.983899999999999830e-02 -2.504089999999999927e-01 2.740400000000000127e-02 -3.165100000000000136e-01 -4.485350000000000170e-01 8.293599999999999861e-01 -4.759920000000000262e-01 -1.062108999999999970e+00 3.911549999999999749e-01 -2.159089999999999898e-01 5.067730000000000290e-01 5.406370000000000342e-01 -1.141579999999999956e-01 9.463430000000000453e-01 -8.607949999999999768e-01 6.381699999999999873e-02 5.314710000000000267e-01 1.296087999999999907e+00 -1.324470000000000092e-01 1.652752999999999917e+00 -2.492749999999999966e-01 -8.643499999999999794e-02 7.801600000000000201e-02 6.797000000000000090e-03 -2.670810000000000128e-01 -3.630289999999999906e-01 -8.884349999999999747e-01 -3.092369999999999841e-01 3.985440000000000094e-01 2.639730000000000132e-01 8.093920000000000003e-01 -2.507969999999999922e-01 1.066279999999999895e+00 -5.871389999999999665e-01 3.210680000000000200e-01 -4.235979999999999746e-01 5.587969999999999882e-01 7.896710000000000118e-01 -6.039949999999999486e-01 1.388066999999999940e+00 6.339479999999999560e-01 2.207870000000000110e-01 -3.219540000000000179e-01 -1.966239999999999932e-01 -1.365369999999999917e-01 -3.109469999999999734e-01 1.384509999999999907e-01 -2.242929999999999924e-01 7.062920000000000309e-01 2.460060000000000024e-01 8.963370000000000504e-01 4.203109999999999902e-01 -9.556839999999999780e-01 3.226979999999999849e-01 3.447430000000000216e-01 -4.923600000000000199e-02 -1.299389999999999989e-01 3.315879999999999939e-01 2.158069999999999988e-01 2.342039999999999955e-01 -2.114800000000000013e-01 3.892639999999999989e-01 -4.098249999999999948e-01 -4.677569999999999784e-01 -8.992769999999999930e-01 2.088599999999999832e-02 9.286999999999999422e-02 -6.057529999999999859e-01 -2.712439999999999851e-01 -4.922520000000000229e-01 -3.522950000000000248e-01 5.258220000000000116e-01 5.006760000000000099e-01 -3.192720000000000002e-01 6.150830000000000464e-01 -2.085869999999999946e-01 -2.182689999999999908e-01 -6.610699999999999910e-02 4.627749999999999919e-01 6.010900000000000271e-02 -4.295820000000000194e-01 -1.339194999999999913e+00 7.349440000000000417e-01 -1.062410000000000021e-01 1.139870000000000050e-01 -2.830500000000000030e-02 7.250839999999999508e-01 2.419650000000000134e-01 2.773140000000000049e-01 1.907230000000000036e-01 -1.198030000000000067e-01 -4.934589999999999810e-01 2.597320000000000184e-01 5.584580000000000100e-01 1.856349999999999945e-01 -2.652220000000000133e-01 -1.288209999999999911e-01 2.772020000000000040e-01 -3.761000000000000020e-03 9.937529999999999974e-01 -7.585300000000000376e-02 2.322849999999999915e-01 -3.810259999999999758e-01 -3.630030000000000201e-01 -4.358599999999999974e-02 1.647639999999999938e-01 -5.630330000000000057e-01 2.224049999999999916e-01 -2.803539999999999921e-01 -1.568900000000000156e-02 4.848600000000000132e-02 -3.156669999999999754e-01 -1.072929999999999995e-01 1.756759999999999988e-01 6.105920000000000236e-01 6.291860000000000230e-01 -1.434855999999999909e+00 4.142029999999999879e-01 7.787549999999999750e-01 4.575549999999999895e-01 -5.667889999999999873e-01 1.843160000000000076e-01 2.697049999999999725e-01 1.140059999999999962e-01 8.864210000000000145e-01 7.480900000000000050e-02 1.940159999999999940e-01 5.179000000000000270e-02 -1.170540000000000053e-01 1.504850000000000076e-01 3.082340000000000080e-01 -2.066820000000000046e-01 1.702358000000000038e+00 1.399450000000000138e-01 -5.535700000000000065e-01 -2.706799999999999831e-02 -7.978100000000000469e-02 -1.449300000000000033e-01 5.176790000000000003e-01 -3.537399999999999989e-01 -3.745760000000000201e-01 -2.149649999999999894e-01 -4.055999999999999710e-03 -3.985400000000000054e-01 -1.090162999999999993e+00 -1.187178999999999984e+00 1.524439999999999962e-01 6.233469999999999844e-01 8.944499999999999673e-02 -3.362999999999999878e-01 -1.438059999999999894e-01 4.723010000000000264e-01 -3.185629999999999851e-01 -2.621709999999999874e-01 -2.223610000000000031e-01 -8.874360000000000026e-01 1.398101000000000038e+00 1.276070999999999955e+00 -3.509510000000000129e-01 -4.760829999999999784e-01 9.182569999999999899e-01 6.105190000000000339e-01 7.644299999999999706e-02 -1.222390000000000004e-01 -1.608960000000000112e-01 6.248359999999999470e-01 2.001979999999999871e-01 8.101099999999999968e-02 6.656700000000000117e-02 4.693419999999999814e-01 -1.442479999999999873e-01 -1.009369999999999989e-01 7.098599999999999355e-02 -4.230679999999999996e-01 1.656579999999999997e-01 3.067199999999999926e-01 8.502099999999999935e-02 1.852820000000000022e-01 -8.358000000000000845e-03 5.854549999999999477e-01 -1.218352000000000102e+00 2.985570000000000168e-01 -6.753400000000000514e-01 -4.766400000000000081e-01 1.491039999999999865e-01 9.918190000000000062e-01 -7.101599999999999580e-02 5.842910000000000048e-01 -1.766290000000000082e-01 7.421119999999999939e-01 -1.559810000000000085e-01 8.243570000000000064e-01 1.307480000000000031e-01 5.052100000000000479e-01 -4.545600000000000335e-02 4.581099999999999756e-02 3.475899999999999823e-02 8.160699999999999898e-02 2.922629999999999950e-01 -4.656089999999999951e-01 -6.519390000000000462e-01 6.056559999999999722e-01 1.119000000000000029e-02 1.376524000000000081e+00 -3.326300000000000090e-02 -5.345440000000000191e-01 -5.636619999999999964e-01 5.546199999999999741e-02 2.006320000000000048e-01 3.056880000000000153e-01 -5.284879999999999578e-01 -4.102060000000000151e-01 8.089399999999999369e-02 6.425830000000000153e-01 -1.685700000000000046e-02 -1.231559999999999988e+00 -1.033300000000000052e-01 -5.097129999999999717e-01 1.827719999999999900e-01 3.783099999999999796e-01 3.459800000000000098e-01 -5.965120000000000422e-01 -2.423939999999999984e-01 6.532470000000000221e-01 4.168680000000000163e-01 -9.551500000000000268e-02 -4.088419999999999832e-01 1.173129000000000088e+00 1.314283000000000090e+00 -1.575910000000000089e-01 -4.443349999999999800e-01 5.761239999999999695e-01 -7.717129999999999823e-01 9.928599999999999925e-02 -4.924459999999999948e-01 -4.846550000000000025e-01 -5.457560000000000189e-01 4.042919999999999847e-01 -2.493599999999999983e-01 -4.701730000000000076e-01 -8.994250000000000300e-01 -2.368869999999999865e-01 -1.745659999999999989e-01 3.960389999999999744e-01 4.146139999999999826e-01 -5.819020000000000303e-01 2.293610000000000093e-01 1.094624999999999959e+00 -1.111609999999999959e-01 -2.130819999999999936e-01 1.406600000000000038e-02 -1.378290000000000071e-01 6.167589999999999462e-01 4.230300000000000171e-01 -6.780190000000000383e-01 1.023541000000000034e+00 2.235610000000000097e-01 7.537049999999999583e-01 -2.028260000000000063e-01 1.804169999999999940e-01 -7.824000000000000399e-02 -1.276609999999999967e-01 7.974269999999999969e-01 4.008470000000000089e-01 1.117199999999999999e-01 -1.756540000000000046e-01 6.408120000000000482e-01 -8.435730000000000173e-01 -5.234799999999999870e-02 -1.084000000000000068e-02 -7.934299999999999686e-02 3.539590000000000236e-01 7.211999999999999661e-03 -1.496899999999999897e-01 2.178259999999999919e-01 -2.406149999999999956e-01 -1.300389999999999879e-01 3.319799999999999834e-02 -1.069228000000000067e+00 2.208099999999999993e-02 -1.670100000000000057e-02 5.965200000000000502e-01 1.374140000000000084e-01 -1.565600000000000047e-01 6.392109999999999737e-01 -2.155370000000000064e-01 3.278650000000000175e-01 -1.854329999999999867e-01 -4.287000000000000255e-01 -2.308649999999999869e-01 -5.759790000000000187e-01 -1.293436000000000030e+00 1.165879999999999972e-01 -1.759979999999999878e-01 -2.867350000000000176e-01 -4.608679999999999999e-01 8.147069999999999590e-01 -1.199602000000000057e+00 9.904499999999999416e-02 -7.014390000000000347e-01 -2.799619999999999886e-01 -5.220630000000000548e-01 -2.642930000000000001e-01 2.122149999999999870e-01 -8.157720000000000526e-01 4.533470000000000000e-01 -5.244879999999999542e-01 -1.261800000000000074e-02 6.367270000000000429e-01 1.679930000000000034e-01 -2.800909999999999789e-01 3.625519999999999854e-01 2.298599999999999949e-02 -4.151650000000000063e-01 -1.727509999999999879e-01 -1.602459999999999996e-01 -1.759910000000000085e-01 -8.705899999999999750e-02 1.689999999999999836e-02 8.413199999999999845e-02 1.946769999999999889e-01 -5.956899999999999695e-02 -1.331980000000000108e-01 8.536209999999999631e-01 2.372990000000000099e-01 2.813370000000000037e-01 -5.859140000000000459e-01 -1.546899999999999942e-01 2.169600000000000001e-02 -6.447640000000000038e-01 -8.741100000000000259e-02 -1.585782999999999943e+00 -5.509880000000000333e-01 4.972000000000000031e-02 -1.884709999999999996e-01 3.077829999999999733e-01 -4.652799999999999991e-02 3.905500000000000083e-01 2.462000000000000213e-03 -7.149099999999999899e-02 5.866430000000000256e-01 7.884399999999999742e-02 -2.997830000000000217e-01 -1.299879999999999924e-01 -3.861999999999999982e-03 -2.381089999999999873e-01 -4.167000000000000148e-01 -1.520299999999999950e-02 9.543559999999999821e-01 -8.967019999999999991e-01 1.484739999999999949e-01 -8.069900000000000684e-02 -6.189000000000000057e-03 3.211809999999999943e-01 -2.042769999999999864e-01 -9.191100000000000658e-02 1.729199999999999834e-02 4.342369999999999841e-01 -2.935729999999999729e-01 -1.782930000000000070e-01 3.535670000000000202e-01 -2.145160000000000122e-01 1.799769999999999981e-01 1.275020000000000042e-01 -2.479979999999999962e-01 1.332629999999999926e-01 -4.134829999999999894e-01 -9.561500000000000554e-02 1.034273999999999916e+00 -2.344279999999999975e-01 -4.777200000000000196e-02 -4.874740000000000184e-01 -3.022360000000000047e-01 2.636820000000000275e-01 1.370460999999999929e+00 3.402419999999999889e-01 3.258670000000000178e-01 -3.144080000000000208e-01 -1.186340000000000033e-01 5.661610000000000253e-01 4.085579999999999767e-01 -3.563839999999999786e-01 -4.474119999999999764e-01 -3.758549999999999947e-01 -1.578650000000000053e-01 3.758940000000000059e-01 -9.118760000000000199e-01 -7.070699999999999763e-01 -4.914879999999999804e-01 -2.572050000000000169e-01 2.686339999999999839e-01 1.106150000000000050e-01 -6.909060000000000201e-01 2.391840000000000077e-01 -6.176409999999999956e-01 3.816129999999999800e-01 -2.997830000000000217e-01 -2.463239999999999874e-01 -1.334720000000000073e-01 -4.399850000000000150e-01 -1.651360000000000050e-01 -5.578520000000000145e-01 1.263970000000000093e-01 -5.742680000000000007e-01 -6.578000000000000513e-02 8.512990000000000279e-01 6.214830000000000076e-01 -2.344699999999999909e-02 8.805370000000000141e-01 -3.971219999999999750e-01 6.886229999999999851e-01 -1.668299999999999991e-02 -6.565699999999999870e-01 -2.893999999999999871e-03 6.270120000000000138e-01 7.498199999999999310e-02 -4.653370000000000006e-01 6.402020000000000488e-01 -3.052619999999999778e-01 1.878300000000000108e-02 -6.012490000000000334e-01 -6.041990000000000416e-01 -1.408959999999999990e+00 8.027560000000000251e-01 8.034320000000000350e-01 5.691370000000000040e-01 -8.201389999999999514e-01 4.956340000000000190e-01 -7.531830000000000469e-01 4.586419999999999941e-01 -6.775100000000000566e-02 2.121949999999999947e-01 7.406620000000000426e-01 4.576350000000000140e-01 6.891999999999999515e-02 -2.843370000000000064e-01 2.879900000000000237e-01 -2.152082000000000050e+00 -4.228029999999999844e-01 -2.171635000000000204e+00 -3.832685999999999815e+00 2.811469999999999803e-01 -2.756282000000000121e+00 -2.737645999999999802e+00 1.678811999999999971e+00 -2.035170000000000035e-01 -1.322608999999999924e+00 -4.119300000000000184e-01 -3.313960000000000239e-01 1.188698999999999950e+00 6.481700000000000239e-01 -1.071552999999999978e+00 1.588784999999999892e+00 -1.395483000000000029e+00 3.804429999999999756e-01 -2.849404999999999966e+00 -5.861410000000000231e-01 -2.120990000000000097e-01 -3.848630000000000106e-01 2.199648999999999965e+00 2.237944999999999851e+00 -2.332206999999999919e+00 5.113349999999999840e-01 3.554899999999999727e-02 2.468926000000000176e+00 -1.728499999999999828e-02 1.763784999999999936e+00 5.046819999999999640e-01 -7.266519999999999646e-01 1.247309000000000001e+00 -9.858529999999999793e-01 1.203322000000000003e+00 8.817899999999999627e-01 -8.809099999999999708e-01 -3.020519999999999872e-01 1.382967000000000057e+00 2.059040000000000037e-01 -9.010719999999999841e-01 -4.210160000000000013e-01 -7.155629999999999491e-01 6.527499999999999969e-02 -1.186468000000000078e+00 4.220360000000000222e-01 9.712439999999999962e-01 -1.323179999999999912e-01 8.548029999999999795e-01 -6.786860000000000115e-01 2.248772999999999911e+00 -4.016689999999999983e-01 3.891189999999999927e-01 -1.207943999999999907e+00 -2.699190000000000200e-01 1.143620000000000081e+00 -5.085790000000000033e-01 -7.922099999999999975e-02 -1.620500000000000052e+00 1.882811000000000012e+00 7.725440000000000085e-01 5.166039999999999521e-01 2.136067000000000160e+00 1.280114999999999892e+00 -7.706599999999999562e-02 1.206368000000000107e+00 1.505759999999999987e+00 1.712677000000000005e+00 -1.019786000000000081e+00 9.117880000000000429e-01 1.057175999999999894e+00 -9.520999999999999949e-03 1.159649999999999986e-01 -3.035702999999999818e+00 -1.852959000000000023e+00 3.236100000000000088e-02 -1.004758000000000040e+00 2.300459000000000032e+00 2.243431000000000175e+00 -2.708528999999999964e+00 8.156849999999999934e-01 -1.301509999999999889e-01 1.693469999999999975e-01 -2.466550000000000131e-01 1.436623999999999901e+00 9.207319999999999949e-01 8.049099999999999311e-02 -8.460450000000000470e-01 -1.395318999999999976e+00 -1.247810000000000030e-01 -1.298232000000000053e+00 1.319617000000000040e+00 -8.543549999999999756e-01 3.072880000000000056e-01 -2.328281000000000045e+00 -1.709211000000000036e+00 -1.348770000000000024e+00 2.684588000000000196e+00 1.597221000000000002e+00 1.986982000000000026e+00 -8.210150000000000503e-01 -2.022492999999999874e+00 2.009730999999999934e+00 -2.091253000000000029e+00 -1.884909999999999919e-01 5.086049999999999738e-01 -1.796581999999999901e+00 -3.751260000000000150e-01 -1.266639000000000070e+00 9.193480000000000540e-01 6.381980000000000430e-01 4.141117999999999633e+00 1.378613000000000088e+00 2.358919999999999906e-01 1.242668000000000106e+00 8.776429999999999509e-01 -1.033233000000000068e+00 -1.224282000000000092e+00 -4.556009999999999782e-01 9.899040000000000061e-01 1.006038999999999906e+00 -1.702533999999999992e+00 4.156869999999999732e-01 1.015384000000000064e+00 -2.207282999999999884e+00 6.481599999999999862e-02 -5.366760000000000419e-01 3.163819999999999966e-01 1.480947999999999931e+00 4.857567000000000412e+00 5.997109999999999941e-01 -1.613700000000000134e-01 -1.198530000000000095e+00 -7.946720000000000450e-01 2.523106999999999989e+00 1.658924000000000065e+00 -1.382733999999999908e+00 -1.181043999999999983e+00 9.900750000000000384e-01 -2.352960000000000051e-01 1.211913999999999936e+00 1.855124999999999913e+00 -9.000559999999999672e-01 -9.293799999999999839e-01 8.959540000000000282e-01 -4.755000000000000199e-02 -5.003929999999999767e-01 7.912299999999999889e-02 8.138809999999999656e-01 -2.466019999999999879e-01 4.884649999999999825e-01 -5.157180000000000097e-01 2.452850000000000030e-01 -1.811119999999999952e-01 -1.619013999999999953e+00 1.100986000000000020e+00 -1.465450000000000086e-01 1.515786999999999995e+00 -1.923267000000000060e+00 6.915820000000000300e-01 -1.052969999999999962e+00 -1.424196000000000017e+00 3.956509999999999749e-01 9.908059999999999645e-01 1.513259999999999883e-01 9.949599999999999556e-01 1.744320000000000093e+00 -4.525799999999999962e-02 -7.434150000000000480e-01 2.930365000000000109e+00 -2.000700000000000048e-02 3.806880000000000264e-01 -5.443869999999999543e-01 2.202580000000000093e-01 3.920370000000000243e-01 2.376959999999999906e-01 -7.077719999999999567e-01 2.865079999999999849e-01 1.706650999999999918e+00 -7.827560000000000073e-01 7.942209999999999548e-01 6.760589999999999655e-01 -1.841810000000000114e-01 6.762620000000000298e-01 5.365839999999999499e-01 -3.054120000000000168e-01 -2.330339999999999911e-01 1.404741999999999935e+00 6.825890000000000013e-01 2.362670000000000048e-01 -1.878584999999999949e+00 -1.002102999999999966e+00 -5.680500000000000133e-02 -3.174609999999999932e-01 -4.608320000000000194e-01 2.046300000000000063e-01 1.770950000000000024e-01 -1.216610000000000053e-01 6.976290000000000546e-01 -1.245888000000000106e+00 -6.374670000000000059e-01 -5.011569999999999636e-01 -8.961120000000000196e-01 1.340000000000000080e-01 -1.554767999999999928e+00 3.780879999999999797e-01 -2.593639999999999834e-01 -1.189049999999999968e-01 2.380599000000000132e+00 1.073190000000000088e+00 -5.993420000000000414e-01 -3.491460000000000119e-01 1.002291999999999961e+00 3.612540000000000195e-01 -3.436049999999999938e-01 4.756949999999999790e-01 -1.089668000000000081e+00 4.224280000000000257e-01 -3.413100000000000023e-01 6.120229999999999837e-01 -1.703140000000000098e+00 -1.397097999999999951e+00 -4.041839999999999877e-01 1.095151999999999903e+00 -3.234960000000000058e-01 -1.567137999999999920e+00 1.418911999999999951e+00 9.388659999999999783e-01 6.910110000000000419e-01 1.070300999999999947e+00 -7.234329999999999927e-01 1.066596000000000100e+00 2.969709999999999850e-01 -1.446727000000000096e+00 -4.721529999999999894e-01 4.862110000000000043e-01 4.682430000000000203e-01 1.634860999999999898e+00 -1.622243000000000102e+00 -2.180893000000000193e+00 -3.721329999999999916e-01 -3.626139999999999919e-01 -1.081458999999999948e+00 -1.362835999999999936e+00 -2.525160000000000182e-01 -2.563909999999999800e-01 -8.597179999999999822e-01 -1.784391999999999978e+00 6.170899999999999996e-02 -4.867790000000000172e-01 7.344230000000000480e-01 -5.791910000000000114e-01 -7.504229999999999512e-01 4.162049999999999916e-01 3.969509999999999983e-01 -5.704719999999999791e-01 -9.324919999999999876e-01 6.251910000000000522e-01 -6.092980000000000063e-01 6.419930000000000359e-01 -9.605620000000000269e-01 -1.355380000000000029e+00 -1.103880000000000000e-01 -1.738587000000000105e+00 1.339982000000000006e+00 -1.764979000000000076e+00 1.716005999999999920e+00 5.739210000000000145e-01 2.364269999999999983e-01 -5.424449999999999550e-01 -8.614270000000000538e-01 -3.773409999999999820e-01 3.121539999999999870e-01 -2.434479999999999977e-01 -7.842710000000000514e-01 -1.722879999999999967e+00 -2.900269999999999793e-01 6.862869999999999804e-01 -4.979549999999999810e-01 -5.715770000000000017e-01 2.735070000000000001e-01 -8.024850000000000039e-01 -3.694450000000000234e-01 4.535170000000000035e-01 -6.537439999999999918e-01 -1.859112000000000098e+00 4.895639999999999992e-01 -9.567189999999999861e-01 -1.611150000000000082e+00 -4.785989999999999966e-01 -9.899959999999999871e-01 9.228969999999999674e-01 -1.179070999999999980e+00 -8.487919999999999909e-01 -7.964160000000000128e-01 1.536460000000000048e-01 1.274259000000000031e+00 -3.068370000000000264e-01 -1.151579999999999965e-01 -1.286213000000000051e+00 8.751560000000000450e-01 1.093758999999999926e+00 1.307369999999999921e-01 -3.783670000000000089e-01 2.669929999999999803e-01 8.196259999999999657e-01 8.139769999999999506e-01 9.864770000000000483e-01 9.507799999999999585e-02 9.550020000000000175e-01 -9.663770000000000415e-01 -5.637090000000000156e-01 -2.049570000000000003e-01 -7.471879999999999633e-01 9.791720000000000423e-01 1.303768999999999956e+00 1.845561000000000007e+00 -1.339409999999999989e+00 -6.446309999999999540e-01 -2.215880000000000072e-01 6.299460000000000059e-01 1.194666000000000006e+00 -4.304200000000000248e-01 -8.480199999999999960e-01 3.857000000000000012e-02 2.587110000000000243e-01 -6.446699999999999653e-02 1.458260000000000112e-01 -4.267630000000000035e-01 -2.338246999999999964e+00 2.694349999999999801e-01 6.614000000000000434e-02 -1.337250000000000105e-01 -1.382948000000000066e+00 -9.077269999999999506e-01 -7.328729999999999967e-01 1.011104999999999920e+00 -3.871839999999999726e-01 1.407232999999999956e+00 9.215280000000000138e-01 7.644250000000000211e-01 8.896159999999999624e-01 -2.996400000000000105e-02 -1.657281000000000004e+00 1.334339999999999971e-01 5.581909999999999927e-01 -2.610669999999999935e-01 1.341819999999999957e-01 9.234639999999999516e-01 1.492696999999999941e+00 7.978370000000000184e-01 5.006730000000000347e-01 2.977330000000000254e-01 1.002965000000000106e+00 2.030530000000000113e-01 2.388129999999999975e-01 1.361045999999999978e+00 6.018189999999999928e-01 -5.421080000000000343e-01 1.038605000000000000e+00 1.865070000000000061e-01 -7.008229999999999738e-01 -8.399149999999999672e-01 -1.509554000000000062e+00 3.414429999999999965e-01 -1.036070000000000046e+00 1.257199999999999984e-01 7.541399999999999493e-02 -5.982340000000000435e-01 -1.628970999999999947e+00 -5.889330000000000398e-01 -4.013490000000000113e-01 1.029965999999999937e+00 -5.944629999999999637e-01 1.030742000000000047e+00 -2.375649999999999817e+00 3.165040000000000076e-01 -2.359240999999999921e+00 -1.119046999999999903e+00 5.189599999999999769e-02 4.073299999999999838e-02 1.345305999999999891e+00 2.594319999999999959e-01 5.524799999999999850e-02 2.836819999999999897e-01 1.070602000000000054e+00 4.231349999999999834e-01 -6.284659999999999691e-01 4.722680000000000211e-01 -4.094809999999999839e-01 -6.049769999999999870e-01 2.015059999999999907e-01 -7.050009999999999888e-01 -6.170500000000000290e-02 -8.617660000000000320e-01 5.819079999999999808e-01 2.109459999999999946e-01 1.006451999999999902e+00 3.577710000000000057e-01 -7.208919999999999773e-01 -1.309839999999999893e-01 -3.329409999999999870e-01 -5.186079999999999579e-01 1.740696000000000021e+00 -8.738949999999999774e-01 -8.146599999999999675e-02 4.632629999999999804e-01 3.781269999999999909e-01 2.204599999999999962e-02 -6.032330000000000192e-01 1.095758999999999928e+00 -7.809110000000000218e-01 -3.154339999999999922e-01 4.632959999999999856e-01 4.632620000000000071e-01 -5.233680000000000554e-01 3.232340000000000213e-01 -5.230010000000000492e-01 1.675257999999999914e+00 -1.660319000000000100e+00 -5.667849999999999833e-01 -1.258699000000000012e+00 1.256175999999999959e+00 -1.686660000000000104e-01 5.509129999999999860e-01 -1.547115999999999936e+00 -2.916199999999999903e-01 1.426820000000000033e-01 -6.552329999999999544e-01 -3.939540000000000264e-01 -6.762289999999999690e-01 1.040065999999999935e+00 -3.078420000000000045e-01 2.419255999999999851e+00 -1.159420000000000034e-01 6.663609999999999811e-01 4.726380000000000026e-01 1.460971999999999937e+00 1.571279999999999899e-01 1.165090000000000015e-01 -2.047859999999999958e-01 8.737100000000000422e-02 4.892000000000000237e-01 1.130257000000000067e+00 1.545509999999999939e+00 -1.039927999999999964e+00 -1.260253000000000068e+00 -1.038200000000000012e+00 -1.412380000000000024e-01 -1.396840000000000026e-01 6.178420000000000023e-01 9.053529999999999633e-01 -9.654500000000000581e-02 -3.788460000000000161e-01 6.276709999999999789e-01 1.513459000000000110e+00 -2.889510000000000134e-01 1.401275999999999966e+00 1.140525000000000011e+00 2.219780000000000086e-01 -8.645329999999999959e-01 6.879490000000000327e-01 2.766350000000000198e-01 2.495629999999999793e+00 2.289706999999999937e+00 -2.281620000000000037e-01 2.562740000000000018e-01 9.983599999999999419e-02 3.139620000000000188e-01 3.664890000000000092e-01 2.445539999999999936e-01 1.136368000000000045e+00 -2.551982999999999890e+00 5.423829999999999485e-01 -3.246700000000000141e-01 8.590229999999999810e-01 8.705800000000000205e-01 1.065914000000000028e+00 1.074718000000000062e+00 1.273832999999999993e+00 -4.889600000000000057e-01 -3.097039999999999793e-01 -3.814939999999999998e-01 -1.090778000000000025e+00 -6.267869999999999830e-01 -1.041989000000000054e+00 -9.688199999999999590e-02 7.630449999999999733e-01 5.925169999999999604e-01 -1.114012999999999920e+00 -6.546459999999999502e-01 3.143259999999999943e-01 1.297079000000000093e+00 -1.070913000000000004e+00 -5.784759999999999902e-01 3.017830000000000235e-01 -1.594797999999999938e+00 -1.542011000000000021e+00 -1.211184999999999956e+00 1.618061999999999889e+00 1.662408000000000108e+00 1.941539999999999933e-01 -2.345369999999999955e-01 -6.678899999999999837e-01 2.245959999999999901e-01 -8.224789999999999601e-01 -1.042907999999999946e+00 1.130706999999999907e+00 -5.004929999999999657e-01 7.511290000000000466e-01 9.729280000000000150e-01 1.484358999999999984e+00 -9.315330000000000554e-01 3.645320000000000227e-01 -8.983800000000000119e-02 1.670004999999999962e+00 -9.659820000000000073e-01 2.854670000000000263e-01 3.618950000000000222e-01 -5.312670000000000448e-01 -3.024069999999999814e-01 2.117332999999999910e+00 -7.668999999999999602e-03 4.767950000000000244e-01 9.677879999999999816e-01 -7.444619999999999571e-01 -1.045533999999999963e+00 2.431010000000000115e-01 2.334239000000000175e+00 -3.853700000000000181e-02 -1.620568000000000008e+00 3.754620000000000180e-01 1.368093000000000004e+00 3.499200000000000088e-01 -8.781879999999999686e-01 3.902619999999999978e-01 1.560272000000000103e+00 4.860769999999999813e-01 -3.884429999999999827e-01 1.133009999999999989e-01 -9.007669999999999844e-01 3.234190000000000120e-01 1.233300000000000021e-02 -1.231797000000000031e+00 2.391659999999999897e-01 -4.178410000000000180e-01 -1.307646000000000086e+00 6.441740000000000244e-01 3.686329999999999885e-01 2.085202000000000222e+00 -4.381680000000000019e-01 -2.002564000000000011e+00 -9.077699999999999658e-02 -5.029709999999999459e-01 3.040570000000000217e-01 -3.003799999999999804e-01 3.775689999999999880e-01 6.537429999999999630e-01 -4.042830000000000035e-01 -1.062121000000000093e+00 -2.542840000000000100e-01 -7.650479999999999503e-01 -1.277705000000000091e+00 -5.309500000000000330e-02 -5.011640000000000539e-01 -3.337160000000000126e-01 9.732650000000000468e-01 1.368320000000000092e-01 -8.547420000000000018e-01 8.623089999999999922e-01 -4.657950000000000146e-01 -1.098767999999999967e+00 -2.120990000000000097e-01 -9.715899999999999537e-02 -5.665360000000000396e-01 -6.667560000000000153e-01 -2.445075000000000109e+00 -2.180845999999999840e+00 -6.899549999999999850e-01 2.668349999999999889e-01 -1.104058999999999902e+00 6.426370000000000138e-01 8.225299999999999834e-01 -1.658219999999999972e-01 6.104549999999999699e-01 1.980374999999999996e+00 3.359079999999999844e-01 1.477257000000000042e+00 7.368879999999999875e-01 -1.033530000000000004e-01 4.391999999999999793e-01 -1.305301999999999962e+00 -4.431800000000000184e-01 6.074619999999999465e-01 9.167260000000000408e-01 -3.738230000000000164e-01 1.652619999999999922e-01 -5.849389999999999867e-01 7.389449999999999630e-01 -5.371820000000000483e-01 4.001660000000000217e-01 1.698620000000000130e-01 1.856140000000000012e-01 -1.004232999999999931e+00 -1.603890000000000038e-01 8.791759999999999575e-01 1.865650000000000086e-01 3.107989999999999919e-01 -6.066380000000000106e-01 -1.428665000000000074e+00 1.018624999999999892e+00 1.351177000000000072e+00 7.722520000000000495e-01 -1.184520000000000017e-01 -8.001430000000000486e-01 -3.964369999999999838e-01 -8.961299999999999821e-02 -4.697999999999999919e-03 2.909999999999999826e-03 9.666900000000000492e-02 -6.400850000000000151e-01 1.047330000000000066e-01 7.327789999999999582e-01 8.475299999999999501e-02 7.009370000000000323e-01 -2.152194999999999858e+00 -5.900649999999999507e-01 -5.242379999999999818e-01 -8.861800000000000233e-02 3.315299999999999914e-01 9.850280000000000147e-01 8.013909999999999645e-01 -1.739580000000000015e-01 -3.466394999999999893e+00 -4.418590000000000018e-01 1.322443999999999953e+00 4.842599999999999683e-02 -2.778769999999999851e-01 -1.079542999999999919e+00 3.093150000000000066e-01 4.051080000000000236e-01 5.325959999999999583e-01 -3.274420000000000108e-01 -8.953109999999999680e-01 1.699027000000000065e+00 -2.805610000000000048e-01 1.341690000000000105e-01 9.600200000000000400e-02 -2.088649000000000200e+00 -1.871059999999999945e-01 -2.321612000000000009e+00 -3.286209999999999964e-01 7.584880000000000511e-01 1.271360000000000046e+00 -7.159330000000000416e-01 -1.307941000000000020e+00 -7.074970000000000425e-01 4.328060000000000240e-01 4.289339999999999820e-01 -2.635120000000000240e-01 5.899680000000000479e-01 -1.980693999999999955e+00 -8.801399999999999502e-02 -1.683959999999999901e-01 3.246049999999999769e-01 -7.572950000000000514e-01 -1.483451000000000075e+00 -3.359539999999999749e-01 -1.697275000000000089e+00 1.093091000000000035e+00 -4.583260000000000112e-01 3.055669999999999775e-01 2.864740000000000064e-01 -1.915996999999999950e+00 5.762000000000000455e-01 4.900340000000000251e-01 1.712549999999999906e-01 -3.921859999999999791e-01 7.274799999999999323e-02 1.008504999999999985e+00 -1.324818000000000051e+00 4.303640000000000243e-01 1.095161000000000051e+00 2.431780000000000053e-01 5.952420000000000488e-01 3.102136999999999922e+00 -2.364843000000000028e+00 1.171480000000000021e-01 5.125859999999999861e-01 8.611090000000000133e-01 3.209040000000000226e-01 6.241769999999999818e-01 -4.611599999999999727e-02 2.581869999999999998e-01 -1.559026999999999941e+00 7.131849999999999579e-01 2.2721